# vtk DataFile Version 4.2
vtk output
ASCII
DATASET POLYDATA
POINTS 33617 float
-85.647 -183.468 -128.297 -85.409 -183.555 -128.159 -85.3889 -183.562 -128.149 
-84.9213 -183.643 -127.964 -84.908 -183.647 -127.959 -84.81 -183.701 -127.894 
-84.2094 -183.907 -127.572 -84.0436 -183.985 -127.473 -83.5385 -184.173 -127.259 
-83.1932 -184.318 -127.095 -83.0406 -184.374 -127.018 -82.8928 -184.431 -126.932 
-82.8699 -184.44 -126.92 -82.7348 -184.455 -126.857 -82.6155 -184.465 -126.792 
-82.5205 -184.469 -126.727 -82.0715 -184.619 -126.543 -81.3926 -184.825 -126.234 
-81.3912 -184.825 -126.233 -81.3331 -184.826 -126.21 -80.9334 -184.895 -126.016 
-80.5753 -184.993 -125.842 -80.5739 -184.994 -125.841 -80.4018 -185.027 -125.763 
-80.021 -185.104 -125.542 -79.952 -185.12 -125.497 -79.9423 -185.123 -125.492 
-79.7837 -185.157 -125.406 -79.7731 -185.16 -125.401 -79.5765 -185.214 -125.292 
-79.4846 -185.232 -125.243 -79.4265 -185.249 -125.209 -79.3991 -185.258 -125.194 
-79.1545 -185.318 -125.071 -79.0675 -185.329 -125.026 -79.0667 -185.329 -125.026 
-78.8661 -185.387 -124.94 -78.8342 -185.393 -124.929 -78.7997 -185.405 -124.911 
-78.7145 -185.436 -124.85 -78.196 -185.639 -124.727 -78.1106 -185.671 -124.714 
-77.8127 -185.788 -124.649 -77.5256 -185.899 -124.574 -77.4515 -185.931 -124.549 
-76.8674 -186.106 -124.383 -76.5778 -186.162 -124.336 -76.5226 -186.173 -124.325 
-76.5213 -186.173 -124.325 -76.4107 -186.191 -124.305 -76.2655 -186.212 -124.274 
-76.2061 -186.214 -124.262 -75.6911 -186.148 -124.192 -75.2954 -186.088 -124.186 
-75.2918 -186.087 -124.185 -74.8386 -185.926 -124.137 -74.753 -185.896 -124.136 
-74.7122 -185.883 -124.137 -74.5983 -185.853 -124.133 -74.5983 -185.853 -124.133 
-74.5954 -185.852 -124.133 -74.4633 -185.81 -124.124 -73.8193 -185.714 -124.098 
-73.7894 -185.709 -124.095 -73.7539 -185.705 -124.09 -73.7162 -185.698 -124.086 
-73.6957 -185.694 -124.084 -73.5636 -185.671 -124.065 -73.2564 -185.616 -124.014 
-73.2561 -185.616 -124.014 -73.25 -185.616 -124.013 -72.9188 -185.548 -123.981 
-72.4084 -185.557 -123.935 -72.2068 -185.555 -123.932 -72.2066 -185.555 -123.932 
-72.1508 -185.567 -123.937 -71.3114 -185.814 -123.931 -71.3112 -185.814 -123.931 
-71.3015 -185.818 -123.932 -71.1236 -185.879 -123.91 -70.6875 -186.021 -123.886 
-70.5188 -186.058 -123.847 -70.2027 -186.097 -123.857 -69.8619 -186.108 -123.889 
-69.6845 -186.129 -123.907 -69.2965 -186.127 -123.965 -69.1891 -186.129 -123.973 
-69.004 -186.125 -124.01 -68.8249 -186.137 -124.039 -68.4122 -186.096 -124.117 
-68.2408 -186.073 -124.133 -68.1964 -186.068 -124.14 -68.1858 -186.067 -124.14 
-68.1342 -186.064 -124.143 -67.7788 -186.041 -124.144 -67.7025 -186.034 -124.149 
-67.4683 -186.016 -124.149 -67.4417 -186.014 -124.15 -67.0625 -186.011 -124.15 
-67.0625 -186.011 -124.15 -67.0622 -186.011 -124.15 -66.7998 -186.003 -124.15 
-66.7683 -186.004 -124.152 -66.3996 -186.009 -124.152 -66.3802 -186.009 -124.151 
-66.1594 -186.01 -124.151 -66.0487 -186.004 -124.154 -65.7387 -186.004 -124.164 
-65.7386 -186.004 -124.164 -65.7081 -186 -124.164 -65.519 -185.999 -124.174 
-65.5147 -185.999 -124.175 -65.4362 -186.003 -124.184 -65.0974 -185.985 -124.219 
-64.2051 -185.915 -124.263 -64.1007 -185.895 -124.269 -64.0993 -185.895 -124.27 
-63.9813 -185.877 -124.28 -63.872 -185.862 -124.284 -63.8023 -185.849 -124.281 
-63.2138 -185.749 -124.249 -63.116 -185.729 -124.238 -62.773 -185.642 -124.216 
-62.3316 -185.522 -124.151 -62.2949 -185.512 -124.151 -62.28 -185.508 -124.15 
-62.2507 -185.5 -124.15 -62.1779 -185.485 -124.145 -61.9642 -185.472 -124.145 
-61.1301 -185.266 -123.987 -61.0271 -185.234 -123.967 -60.6344 -185.134 -123.874 
-60.3685 -185.078 -123.809 -60.2251 -185.059 -123.784 -60.0044 -185.018 -123.728 
-59.9008 -185.003 -123.706 -59.7705 -184.993 -123.67 -59.5658 -184.98 -123.621 
-59.3782 -184.967 -123.574 -58.93 -184.934 -123.497 -58.8221 -184.928 -123.47 
-58.7565 -184.918 -123.457 -58.7364 -184.916 -123.455 -58.73 -184.915 -123.454 
-58.5349 -184.884 -123.432 -58.2164 -184.798 -123.34 -58.1052 -184.767 -123.303 
-57.4824 -184.612 -123.036 -57.0872 -184.498 -122.826 -56.982 -184.465 -122.763 
-56.6914 -184.397 -122.592 -56.4579 -184.361 -122.439 -56.3292 -184.331 -122.362 
-56.2345 -184.319 -122.31 -56.1948 -184.318 -122.29 -55.9933 -184.307 -122.181 
-55.9817 -184.308 -122.175 -55.6589 -184.279 -121.952 -55.4257 -184.236 -121.782 
-54.9842 -184.191 -121.491 -54.89 -184.18 -121.442 -54.3133 -184.193 -121.166 
-54.1293 -184.209 -121.113 -53.9516 -184.253 -121.075 -53.749 -184.277 -121.009 
-53.6466 -184.29 -120.965 -53.4746 -184.289 -120.889 -53.3018 -184.288 -120.824 
-52.5067 -184.198 -120.427 -52.4618 -184.193 -120.409 -52.262 -184.185 -120.3 
-52.1537 -184.178 -120.229 -51.864 -184.195 -120.029 -51.8137 -184.2 -119.996 
-51.5762 -184.231 -119.84 -51.5727 -184.231 -119.838 -51.4053 -184.246 -119.714 
-51.2794 -184.263 -119.628 -51.2294 -184.266 -119.596 -51.0945 -184.271 -119.486 
-51.0734 -184.276 -119.467 -51.0297 -184.29 -119.425 -51.0282 -184.29 -119.424 
-50.8404 -184.347 -119.233 -50.8368 -184.348 -119.228 -50.7757 -184.365 -119.157 
-50.6792 -184.394 -119.056 -50.6128 -184.404 -118.993 -50.5994 -184.406 -118.978 
-50.3195 -184.466 -118.647 -50.1982 -184.475 -118.495 -50.1978 -184.475 -118.494 
-50.104 -184.482 -118.398 -50.0387 -184.471 -118.304 -50.0156 -184.465 -118.27 
-49.7002 -184.323 -117.822 -49.6905 -184.316 -117.81 -49.6667 -184.296 -117.776 
-49.6614 -184.291 -117.77 -49.5887 -184.223 -117.655 -49.5199 -184.148 -117.525 
-49.2691 -183.899 -117.079 -49.2688 -183.899 -117.078 -49.2336 -183.864 -117.005 
-48.8883 -183.606 -116.454 -48.7973 -183.513 -116.267 -48.3789 -183.243 -115.563 
-48.3507 -183.222 -115.519 -48.1502 -183.106 -115.208 -48.0449 -183.057 -115.069 
-47.7063 -182.888 -114.697 -47.6406 -182.864 -114.638 -47.4123 -182.808 -114.412 
-47.2345 -182.759 -114.259 -46.2523 -182.47 -113.931 -46.1782 -182.439 -113.91 
-45.7681 -182.296 -113.842 -45.7564 -182.289 -113.842 -45.2416 -181.941 -113.883 
-44.6433 -181.506 -113.982 -44.2369 -181.149 -114.001 -44.2117 -181.123 -113.999 
-43.8554 -180.622 -113.986 -43.8017 -180.535 -113.977 -43.4972 -180.067 -113.884 
-43.4822 -180.026 -113.871 -43.4194 -179.902 -113.816 -43.3917 -179.842 -113.788 
-43.3443 -179.675 -113.699 -43.3411 -179.665 -113.694 -43.258 -179.508 -113.599 
-43.1919 -179.367 -113.497 -43.1714 -179.324 -113.461 -43.1571 -179.294 -113.435 
-43.141 -179.262 -113.405 -43.139 -179.258 -113.401 -43.026 -179.046 -113.203 
-42.9876 -178.973 -113.137 -42.8429 -178.694 -112.87 -42.8428 -178.694 -112.87 
-42.8345 -178.68 -112.854 -42.6646 -178.394 -112.552 -42.6644 -178.394 -112.552 
-42.63 -178.348 -112.5 -42.4003 -178.109 -112.231 -42.2436 -177.966 -112.079 
-42.1648 -177.894 -111.999 -42.1542 -177.885 -111.989 -41.8026 -177.595 -111.714 
-41.783 -177.582 -111.699 -41.4679 -177.362 -111.496 -41.2536 -177.206 -111.385 
-41.0875 -177.098 -111.289 -40.821 -176.936 -111.175 -40.7927 -176.918 -111.169 
-40.6988 -176.862 -111.141 -40.5577 -176.778 -111.114 -40.3289 -176.639 -111.048 
-40.2078 -176.561 -111.007 -40.0634 -176.477 -110.957 -40.0374 -176.462 -110.952 
-39.8145 -176.318 -110.908 -39.6147 -176.19 -110.888 -39.4652 -176.105 -110.859 
-39.0089 -175.949 -110.739 -38.9489 -175.922 -110.712 -38.5716 -175.641 -110.519 
-38.1906 -175.312 -110.248 -38.183 -175.307 -110.242 -38.0445 -175.255 -110.169 
-37.9233 -175.195 -110.12 -37.7779 -175.104 -110.047 -37.7294 -175.077 -110.017 
-37.2194 -174.733 -109.741 -37.1334 -174.681 -109.685 -36.7282 -174.365 -109.426 
-36.7153 -174.347 -109.413 -36.6664 -174.296 -109.375 -36.3671 -174.025 -109.293 
-35.9783 -173.776 -109.212 -35.6189 -173.472 -109.164 -35.4226 -173.277 -109.164 
-35.2849 -173.141 -109.149 -34.9538 -172.81 -109.157 -34.5639 -172.533 -109.217 
-34.1806 -172.307 -109.296 -34.1585 -172.292 -109.3 -34.0471 -172.198 -109.332 
-33.8413 -171.969 -109.456 -33.8272 -171.956 -109.465 -33.6651 -171.798 -109.555 
-33.5993 -171.727 -109.598 -33.3906 -171.556 -109.752 -33.3034 -171.477 -109.828 
-33.0724 -171.257 -110.042 -32.9597 -171.152 -110.17 -32.829 -171.044 -110.292 
-32.7829 -171.003 -110.333 -32.4398 -170.719 -110.726 -32.4007 -170.675 -110.773 
-32.1571 -170.387 -111.057 -32.0597 -170.276 -111.206 -31.9515 -170.168 -111.354 
-31.8865 -170.061 -111.471 -31.6798 -169.636 -111.908 -31.656 -169.57 -111.955 
-31.6013 -169.371 -112.137 -31.5763 -169.271 -112.214 -31.4869 -168.9 -112.459 
-31.4389 -168.476 -112.671 -31.4389 -168.476 -112.671 -31.3946 -168.098 -112.836 
-31.3872 -167.96 -112.876 -31.3842 -167.933 -112.883 -31.3759 -167.812 -112.921 
-31.3689 -167.539 -112.993 -31.357 -167.434 -113.02 -31.3563 -167.334 -113.045 
-31.3553 -167.314 -113.05 -31.3602 -166.99 -113.134 -31.3459 -166.737 -113.21 
-31.3425 -166.563 -113.267 -31.3515 -166.477 -113.3 -31.3514 -166.475 -113.301 
-31.3307 -165.953 -113.466 -31.3328 -165.606 -113.593 -31.3414 -165.437 -113.675 
-31.3651 -165.089 -113.837 -31.3836 -164.679 -114.057 -31.3836 -164.679 -114.057 
-31.3906 -164.58 -114.104 -31.3959 -164.187 -114.339 -31.3958 -164.185 -114.341 
-31.3925 -164.043 -114.461 -31.3826 -164.002 -114.499 -31.3819 -163.999 -114.5 
-31.3655 -163.939 -114.545 -31.0405 -163.432 -115.034 -30.9919 -163.362 -115.109 
-30.6556 -162.903 -115.564 -30.5539 -162.751 -115.686 -30.244 -162.465 -115.995 
-30.1792 -162.411 -116.066 -29.7244 -162.083 -116.408 -29.448 -161.878 -116.558 
-29.328 -161.817 -116.621 -29.3263 -161.817 -116.622 -28.9141 -161.626 -116.784 
-28.6281 -161.481 -116.857 -28.5954 -161.462 -116.862 -28.466 -161.395 -116.886 
-28.4525 -161.386 -116.888 -28.2393 -161.195 -116.927 -28.1589 -161.141 -116.937 
-28.1479 -161.133 -116.938 -27.7688 -160.889 -116.975 -27.6566 -160.825 -116.986 
-27.4406 -160.721 -117.017 -27.3795 -160.697 -117.026 -27.0326 -160.594 -117.024 
[...]
POINT_DATA 33617
FIELD FieldData 3
MaximumInscribedSphereRadius 1 33617 double
2.8598081025 2.8446893853 2.8422823722 2.7721549337 2.7702989893 2.7539499815 2.6908574646 2.6892246657 2.6715946171 
2.6596321769 2.6511972147 2.6571072384 2.6580818325 2.6530707618 2.6471444496 2.6355974097 2.5712262972 2.5277607095 
2.5277511428 2.5273620997 2.5058364394 2.5084803642 2.508592057 2.5224419665 2.5763927288 2.5902310396 2.5919441594 
2.6185781793 2.6201498587 2.6528979178 2.6711394135 2.6805586892 2.6839594513 2.7282202442 2.7486754551 2.7488639719 
2.7958046567 2.8028187272 2.8058817017 2.8100900069 2.719297929 2.7071625084 2.6713288695 2.664372153 2.6634310661 
2.6805352598 2.6827381887 2.6852336157 2.6853251518 2.692861623 2.7056879692 2.7092538879 2.7199999513 2.7504205526 
2.7506555107 2.779790309 2.7878181218 2.7909152672 2.7965326622 2.7965329006 2.7965624609 2.7948446153 2.7990710029 
2.8007015031 2.8023726916 2.8025905662 2.8024697365 2.803841082 2.8166908909 2.8166941493 2.8167723508 2.8170476295 
2.8172069437 2.8325204032 2.832502157 2.8279588427 2.7923649802 2.7923573503 2.7920924808 2.7868052547 2.797514524 
2.8075537521 2.7792901948 2.7635789381 2.7624765129 2.7746381824 2.7818114758 2.7821391858 2.788439748 2.8043191192 
2.8127763302 2.8145246764 2.8144894695 2.8130886746 2.8091870345 2.8089355983 2.807304222 2.8068154651 2.806851584 
2.8068515949 2.8068543086 2.8051066809 2.8047673908 2.8050752733 2.8052909672 2.8040029869 2.8000615482 2.7931832245 
2.7931760584 2.7913917225 2.7793847299 2.7790388379 2.7727329602 2.7377512504 2.6852062893 2.682405867 2.682383941 
2.6805786976 2.6784848723 2.679983033 2.7068201499 2.7164808725 2.7408821491 2.8064737573 2.8102217843 2.8107641802 
2.8107195441 2.8085199039 2.7976315227 2.7065248793 2.7062018348 2.7020061319 2.7131233168 2.7161863607 2.7172010901 
2.720704395 2.7232855046 2.738409461 2.7456932515 2.7837216465 2.7988617898 2.8068641809 2.8081229563 2.8087243014 
2.8269149909 2.8267768883 2.8198165463 2.7804855774 2.7870078724 2.788864184 2.7954399186 2.8098562213 2.8230648924 
2.827643834 2.8279554811 2.8319312739 2.8317673358 2.7876736816 2.7577777147 2.7247471787 2.7162215818 2.6403083437 
2.6162428538 2.5922983831 2.5613951663 2.5456638314 2.5199273147 2.5018029416 2.5141539197 2.5180309578 2.5223385875 
2.5320277202 2.5538550983 2.564321757 2.6149038999 2.6158309556 2.6612566843 2.6997805342 2.7144884186 2.7509051245 
2.7561253489 2.7669433486 2.7673950004 2.8233998224 2.8245470204 2.8438855006 2.8715876721 2.8884450781 2.8913497032 
2.9703945204 3.0088276302 3.0089152471 3.0307318496 3.0312005415 3.0294353818 3.0273720591 3.0273065739 3.0249112177 
3.0242606863 3.0065825659 2.9787480832 2.8745321642 2.8744350755 2.8623960803 2.7946926465 2.7881201738 2.8223629815 
2.8239710078 2.8390222979 2.8340682673 2.8258701502 2.8258054695 2.8348232655 2.8468923393 2.7408473663 2.7379209072 
2.7040604999 2.7009341112 2.5771647208 2.5631781769 2.6291522903 2.6316025604 2.7006307655 2.7122948043 2.8341014548 
2.8390774881 2.8596846353 2.8703250973 2.8897182592 2.8907253922 2.9033759179 2.910827895 2.9109483347 2.9113447484 
2.9099835287 2.9096307724 2.8938000072 2.8828058489 2.8634979472 2.8634876929 2.862643423 2.8682119847 2.8682223241 
2.870796847 2.8771014856 2.8823020873 2.8917134361 2.8926095541 2.9184982546 2.9203781112 2.9394473895 2.9622845954 
2.9785724106 2.9956670051 2.9952772025 2.9853694182 2.9662776484 2.9353102251 2.9251495482 2.9176634029 2.9146757946 
2.8931298118 2.8770910197 2.8667666469 2.8347429957 2.8281341218 2.769027433 2.7244585283 2.724148437 2.7279488698 
2.7202055898 2.7163021245 2.7113852802 2.6892677272 2.6911382392 2.7205801143 2.7231212281 2.7253483492 2.6515726906 
2.578967015 2.535135189 2.5247268875 2.520242804 2.5273840368 2.5805870477 2.653397024 2.6575073478 2.6805074596 
2.6973841372 2.6961029705 2.6938642599 2.7003601562 2.6876197653 2.6803674738 2.6645710133 2.6634399406 2.6624872101 
2.6616611105 2.6781483101 2.6810670949 2.699539945 2.7127130522 2.7345414466 2.733692398 2.7829626091 2.7894463903 
2.7979151307 2.8039972196 2.822594891 2.8581295408 2.8581889123 2.893603357 2.8980436021 2.8993913057 2.9059227774 
2.9220133473 2.930393808 2.9321390877 2.932205568 2.9306153661 2.9392617465 2.948031652 2.9474555113 2.9474800455 
2.9605740604 2.9572302802 2.9551754552 2.9233791333 2.9028375602 2.9028399697 2.9034399375 2.901008697 2.9009205824 
2.8936658164 2.886788714 2.8861748503 2.8714421217 2.6633093722 2.6353804909 2.5260495524 2.5224633034 2.4995980469 
2.4999459201 2.5014749464 2.5311964036 2.5413735964 2.5414321775 2.5588825021 2.5871028314 2.5891495541 2.5930182742 
2.5937626103 2.6215834055 2.626118217 2.6266393469 2.6509286898 2.6606494697 2.6866980553 2.6931415991 2.71125398 
2.6955505163 2.6957743731 2.7020461097 2.7211368258 2.7209424903 2.6866435239 2.6717866633 2.6644086431 2.6584820192 
2.6333163928 2.6415926685 2.6650147336 2.6946942751 2.7264218781 2.7492859525 2.7737903521 2.7641468844 2.7648961397 
2.7266451474 2.6733867634 2.6799264797 2.6546014536 2.6676429897 2.6716765713 2.680949903 2.6993287649 2.7095098181 
2.6577921444 2.6577826804 2.656609133 2.5731540683 2.5648176238 2.5784038946 2.5788433066 2.600374495 2.652642448 
2.6529538061 2.6656157022 2.7303632124 2.739699784 2.8430191361 2.8432484487 2.8434466009 2.8534576492 2.7764867823 
2.8078766078 2.8558089686 2.8559054021 2.8563728777 2.8624066022 2.8436319862 2.968602273 2.978460587 3.1542614255 
3.154618681 3.1670205502 3.2511243423 3.258397197 3.2620403714 3.2694176768 3.2849274862 3.2850844909 3.2927777228 
3.3209432587 3.3337573901 3.3379031631 3.3462239127 3.3475746435 3.36411874 3.3678528179 3.3705118251 3.4368369898 
3.4558380168 3.5021588116 3.5850847025 3.5853269145 3.645637722 3.6602733549 3.6654819694 3.6812257817 3.6981384117 
3.7002053557 3.7020387984 3.7353253008 3.7817211746 3.7963580444 3.7986456382 3.7986040938 3.8036167076 3.8082026474 
3.8142461826 3.8243486344 3.8247218309 3.8280288682 3.829160241 3.7989552129 3.7588918982 3.7468040731 3.7028814656 
3.6891625567 3.6891473985 3.6872677937 3.6769757285 3.6769889883 3.6786332048 3.6794796213 3.6946175201 3.7411860701 
3.7412311417 3.7524539757 3.779903759 3.8059469017 3.8060353072 3.8280482839 3.8305226373 3.8257644978 3.8115699154 
3.8074143429 3.8018596922 3.7741581298 3.7654861772 3.7661202681 3.7956935452 3.8052122037 3.8127015634 3.8246315548 
3.8396275231 3.8533315791 3.8585410383 3.874599617 3.8954159847 3.9070417162 3.9165596458 3.9438164322 3.9556633384 
3.9616089187 3.9617317572 3.9923185441 3.9990693791 3.9995690089 4.0015111684 4.0016066034 4.0026708031 4.0028235174 
4.002423423 3.9914325603 3.9661489857 3.9637977423 3.9635027029 3.9471183458 3.923798792 3.9219725143 3.8729336552 
3.8234317851 3.8227094649 3.8537316322 3.8700777658 3.8713176316 3.8801702497 3.8945130476 3.8964105669 3.9003001905 
3.9004173336 3.9011155811 3.9017871844 3.9019007643 3.8682553913 3.8589944625 3.8169812544 3.7594275628 3.7574073725 
3.7279757904 3.7178401025 3.7134767777 3.7085293076 3.6693884751 3.6630382835 3.6486024887 3.6494535328 3.6525827213 
3.6488126805 3.6488187324 3.6641144875 3.694551357 3.6980781013 3.7124206657 3.7357623977 3.7513955399 3.7879905798 
3.7889803758 3.8106455843 3.8164419021 3.8725506341 3.8725901857 3.8824385282 3.8903588724 3.8931845827 3.9668869145 
3.9671659246 4.0366394246 4.0368159567 4.0454660296 4.1514199848 4.1518342897 4.1859453924 4.1916165187 4.2122110935 
4.2230656696 4.2233382745 4.2912168906 4.3050312024 4.3860571165 4.3862413494 4.4321153499 4.4326304975 4.4643120707 
4.4670176968 4.4704613537 4.48278751 4.529028063 4.5292254926 4.5783854691 4.6241858135 4.6245449041 4.6541100335 
4.6542370571 4.6580795215 4.6584594909 4.7530718668 4.7800375423 4.8549627756 4.8598460572 4.8697884405 4.911535472 
4.9459642169 4.989333374 4.9900793556 5.0123967175 5.0247712614 5.0398736558 5.0444818466 5.103090824 5.1035787198 
5.1197094793 5.213161778 5.2581716663 5.2966675441 5.3250953199 5.3437049248 5.3496330607 5.3586277661 5.3690677387 
5.374246845 5.3789746789 5.3893635317 5.4353632589 5.4638666673 5.4863690645 5.5001685355 5.5114843821 5.5330257343 
5.5063140873 5.4715745146 5.4453653436 5.4489276472 5.454276654 5.5021694446 5.5053180536 5.5612632608 5.6594274556 
5.6597580919 5.7420865275 5.8112110308 5.9008647599 6.2902426963 6.3962601556 6.9581643 7.217939722 7.3425764384 
7.4649084638 7.7052926696 7.8021190632 8.011725034 8.0117399857 8.0129710145 8.3195635116 8.5859859758 8.9109740794 
9.3083109673 9.5804983826 9.6728221118 9.7122034934 10.227041394 10.4886231 10.563508989 10.572725086 10.637546856 
10.694293692 10.74413147 10.7759166 10.827883974 10.86798291 10.892137808 10.923060729 10.926041761 10.936112401 
10.962743391 10.977700065 11.004315335 11.012832083 11.08556264 11.20307459 11.240281368 11.272631198 11.274973447 
11.313031483 11.429092622 11.431747429 11.432396939 11.435334526 11.435350987 11.439449811 11.45194359 11.459640685 
11.473200451 11.473853946 11.48056895 11.496204224 11.525490999 11.523436552 11.545336819 11.536274745 11.537654539 
11.535273112 11.539204892 11.55113601 11.531208426 11.520740392 11.525074289 11.528991315 11.524432956 11.535452419 
11.536799207 11.544476643 11.545442938 11.564589101 11.563069667 11.585844137 11.592540381 11.605092093 11.62703686 
11.64258484 11.661208256 11.670102325 11.69247277 11.688015465 11.699108143 11.708970486 11.724070377 11.715004439 
11.712737352 11.659189412 11.698158426 11.713046553 11.704067141 11.702771305 11.706751053 11.709432555 11.721719551 
11.727577497 11.727601758 11.733642828 11.750453445 11.782042952 11.8138488 11.823490391 11.825055898 11.955023902 
12.009593594 12.127596147 12.178597018 12.186441709 12.225621356 12.23141245 12.242478947 12.263024866 12.277012146 
12.277655107 12.285205479 12.288596762 12.293304919 12.290492782 12.270678239 12.269603619 12.260982737 12.232950464 
12.213776287 12.133159516 12.081863878 12.08063509 12.061865444 12.050261144 12.051592856 12.072646837 12.115450168 
12.156916271 12.179128123 12.195220357 12.196897108 12.208952293 12.256033304 12.25695605 12.276186858 12.303914419 
12.314996872 12.325216719 12.325080455 12.324624385 12.324665651 12.324183198 12.324433115 12.324923086 12.325667876 
12.330003677 12.331518138 12.336907955 12.339326146 12.344908828 12.36673105 12.370980806 12.342079344 12.339802749 
12.32948532 12.320013903 12.3253221 12.330241168 12.332289604 12.33411356 12.33826535 12.338718058 12.34254494 
12.346701932 12.346702041 12.346729034 12.334516523 12.310552273 12.320731651 12.364757563 12.374364789 12.388357966 
12.409263817 12.411525622 12.391331748 12.386249 12.380144537 12.35613554 12.321592905 12.302249694 12.273899524 
12.242183047 12.231433538 12.23014163 12.222291488 12.223564413 12.228217461 12.211972072 12.171013734 12.160568173 
12.136894424 12.124637064 12.106765746 12.106756407 12.106376644 12.075359476 12.07330625 12.061515822 12.06149977 
12.060713242 12.029849752 12.030008146 12.030952851 12.020063014 12.010552508 12.004909918 11.997757149 11.956907166 
11.955638035 11.951039273 11.946960932 11.946959387 11.946832228 11.965007034 11.969302525 11.976326799 11.991019639 
11.992131698 11.99392018 12.001310988 11.997874761 11.994706915 11.994527142 11.993534445 11.994862215 11.995529969 
12.001813661 12.009442851 12.012305577 12.023231936 12.032520459 12.037229516 12.058577061 12.061802545 12.066842096 
12.066937084 12.07165043 12.071643732 12.050708257 12.047671748 12.042957025 12.042583579 12.039957019 12.040369373 
12.010690332 12.007532029 12.008712572 12.021078714 12.03284309 12.06119368 12.073931049 12.088647031 12.100287522 
12.12172739 12.13794372 12.146925094 12.153275111 12.165040634 12.177417413 12.187216419 12.208840479 12.225270881 
12.226435208 12.242940872 12.249835679 12.250295141 12.257664502 12.266309777 12.288583681 12.289867118 12.312934068 
12.318989414 12.325508526 12.326249759 12.326495634 12.326428 12.316536947 12.286045444 12.283272752 12.273525897 
12.262695128 12.216306574 12.206143078 12.190976449 12.19143949 12.202542319 12.214673665 12.211041475 12.20277725 
12.202374153 12.202267343 12.196365709 12.179131386 12.184624832 12.189775249 12.177078025 12.173920867 12.178083387 
12.199976909 12.220714581 12.238887428 12.240316356 12.242112717 12.243816006 12.26293796 12.266280065 12.273096815 
12.271791995 12.271495084 12.284973376 12.295391994 12.299329898 12.334345849 12.335299368 12.346978229 12.349187117 
12.353166585 12.380256851 12.394200122 12.397448978 12.407466228 12.434799922 12.445966221 12.453312139 12.460986527 
12.47975268 12.479762256 12.480949641 2.0935162635 2.1476736897 2.1544900684 2.1563840459 2.213334345 2.2169813497 
2.218026124 2.2313367366 2.2512970402 2.2634785674 2.280503897 2.2837426043 2.2891758186 2.3015725709 2.3222665594 
2.3487758796 2.3541901199 2.3804601376 2.3960591665 2.4082994766 2.4563431027 2.4598326234 2.4599526169 2.4629691541 
2.4628304719 2.4577891899 2.4577158195 2.457015597 2.4576981044 2.4600606263 2.4566991329 2.4624062383 2.4628515703 
2.4637692026 2.4646841026 2.4646846359 2.4598133809 2.459717091 2.457773899 2.4605290103 2.4575408842 2.4547529918 
2.4592208262 2.4587951758 2.456996551 2.4594652384 2.4556750342 2.4530668322 2.4547572135 2.4585227464 2.45829461 
2.4566175357 2.4593165196 2.4553651202 2.4529421806 2.4535972228 2.4570580198 2.456757931 2.4553323115 2.446024052 
2.4538365933 2.4569429428 2.4563781844 2.4600700298 2.4544465533 2.4537138382 2.453035253 2.4601438179 2.461013032 
2.4607792314 2.4547913738 2.4547263399 2.4530962316 2.4514114179 2.4512612486 2.4524455174 2.4543574931 2.4545540255 
2.4545409133 2.4533626394 2.4532554051 2.4529498062 2.4547203184 2.4548136233 2.4585085754 2.4664229867 2.4672369434 
2.4751478035 2.4988649166 2.5038004944 2.51530792 2.5271613153 2.5343691464 2.5336565806 2.5276039131 2.5245520355 
2.5193616298 2.5153007846 2.5150015998 2.4990497593 2.4961415253 2.4746270476 2.474657424 2.4768689697 2.4829513684 
2.483105309 2.4801361994 2.4500382235 2.4461970587 2.4449510418 2.4421833786 2.4090139635 2.402933021 2.3843038151 
2.3790811678 2.3614036744 2.3900447976 2.4160109607 2.421285555 2.4523905902 2.4785742979 2.4847096602 2.4893985233 
2.4898115885 2.4896617794 2.4859440805 2.4859501906 2.486249585 2.4646582883 2.4554687143 2.4528506658 2.4554573977 
2.4601267021 2.4680445217 2.4766347759 2.4728079523 2.4758036671 2.4636663452 2.4650871423 2.4652273341 2.463190073 
2.4627352983 2.4659212553 2.4704470676 2.4715929896 2.4725821016 2.4815984975 2.485995091 2.4870304324 2.5102542561 
2.5267038431 2.5265637323 2.5196983009 2.4856219403 2.5066824755 2.5986037269 2.59860629 2.5992444847 2.6363331022 
2.6363467548 2.6397462427 2.6416422231 2.7329505279 2.7376918326 2.738294531 2.7656263013 2.7658891977 2.7711033084 
2.7808449223 2.7840788518 2.7727423628 2.7653911974 2.7244868274 2.7216749038 2.7010930238 2.6991023358 2.6839381119 
2.6855248897 2.6885316332 2.6916724572 2.6918246189 2.694457329 2.6944216454 2.6929705123 2.6841695181 2.6877876035 
2.7252011484 2.7279636337 2.7262311834 2.6515726906 2.578967015 2.535135189 2.5247268875 2.520242804 2.5273840368 
2.5805870477 2.653397024 2.6575073478 2.6805074596 2.6973841372 2.6961029705 2.6938642599 2.7003601562 2.6876197653 
2.6803674738 2.6645710133 2.6634399406 2.6624872101 2.6616611105 2.6781483101 2.6810670949 2.699539945 2.7127130522 
2.7345414466 2.733692398 2.7829626091 2.7894463903 2.7979151307 2.8039972196 2.822594891 2.8581295408 2.8581889123 
2.893603357 2.8980436021 2.8993913057 2.9059227774 2.9220133473 2.930393808 2.9321390877 2.932205568 2.9306153661 
2.9392617465 2.948031652 2.9474555113 2.9474800455 2.9605740604 2.9572302802 2.9551754552 2.9233791333 2.9028375602 
2.9028399697 2.9034399375 2.901008697 2.9009205824 2.8936658164 2.886788714 2.8861748503 2.8714421217 2.6633093722 
2.6353804909 2.5260495524 2.5224633034 2.4995980469 2.4999459201 2.5014749464 2.5311964036 2.5413735964 2.5414321775 
2.5588825021 2.5871028314 2.5891495541 2.5930182742 2.5937626103 2.6215834055 2.626118217 2.6266393469 2.6509286898 
2.6606494697 2.6866980553 2.6931415991 2.71125398 2.6955505163 2.6957743731 2.7020461097 2.7211368258 2.7209424903 
2.6866435239 2.6717866633 2.6644086431 2.6584820192 2.6333163928 2.6415926685 2.6650147336 2.6946942751 2.7264218781 
2.7492859525 2.7737903521 2.7641468844 2.7648961397 2.7266451474 2.6733867634 2.6799264797 2.6546014536 2.6676429897 
2.6716765713 2.680949903 2.6993287649 2.7095098181 2.6577921444 2.6577826804 2.656609133 2.5731540683 2.5648176238 
2.5784038946 2.5788433066 2.600374495 2.652642448 2.6529538061 2.6656157022 2.7303632124 2.739699784 2.8430191361 
2.8432484487 2.8434466009 2.8534576492 2.7764867823 2.8078766078 2.8558089686 2.8559054021 2.8563728777 2.8624066022 
2.8436319862 2.968602273 2.978460587 3.1542614255 3.154618681 3.1670205502 3.2511243423 3.258397197 3.2620403714 
3.2694176768 3.2849274862 3.2850844909 3.2927777228 3.3209432587 3.3337573901 3.3379031631 3.3462239127 3.3475746435 
3.36411874 3.3678528179 3.3705118251 3.4368369898 3.4558380168 3.5021588116 3.5850847025 3.5853269145 3.645637722 
3.6602733549 3.6654819694 3.6812257817 3.6981384117 3.7002053557 3.7020387984 3.7353253008 3.7817211746 3.7963580444 
3.7986456382 3.7986040938 3.8036167076 3.8082026474 3.8142461826 3.8243486344 3.8247218309 3.8280288682 3.829160241 
3.7989552129 3.7588918982 3.7468040731 3.7028814656 3.6891625567 3.6891473985 3.6872677937 3.6769757285 3.6769889883 
3.6786332048 3.6794796213 3.6946175201 3.7411860701 3.7412311417 3.7524539757 3.779903759 3.8059469017 3.8060353072 
3.8280482839 3.8305226373 3.8257644978 3.8115699154 3.8074143429 3.8018596922 3.7741581298 3.7654861772 3.7661202681 
3.7956935452 3.8052122037 3.8127015634 3.8246315548 3.8396275231 3.8533315791 3.8585410383 3.874599617 3.8954159847 
3.9070417162 3.9165596458 3.9438164322 3.9556633384 3.9616089187 3.9617317572 3.9923185441 3.9990693791 3.9995690089 
4.0015111684 4.0016066034 4.0026708031 4.0028235174 4.002423423 3.9914325603 3.9661489857 3.9637977423 3.9635027029 
3.9471183458 3.923798792 3.9219725143 3.8729336552 3.8234317851 3.8227094649 3.8537316322 3.8700777658 3.8713176316 
3.8801702497 3.8945130476 3.8964105669 3.9003001905 3.9004173336 3.9011155811 3.9017871844 3.9019007643 3.8682553913 
3.8589944625 3.8169812544 3.7594275628 3.7574073725 3.7279757904 3.7178401025 3.7134767777 3.7085293076 3.6693884751 
3.6630382835 3.6486024887 3.6494535328 3.6525827213 3.6488126805 3.6488187324 3.6641144875 3.694551357 3.6980781013 
3.7124206657 3.7357623977 3.7513955399 3.7879905798 3.7889803758 3.8106455843 3.8164419021 3.8725506341 3.8725901857 
3.8824385282 3.8903588724 3.8931845827 3.9668869145 3.9671659246 4.0366394246 4.0368159567 4.0454660296 4.1514199848 
4.1518342897 4.1859453924 4.1916165187 4.2122110935 4.2230656696 4.2233382745 4.2912168906 4.3050312024 4.3860571165 
4.3862413494 4.4321153499 4.4326304975 4.4643120707 4.4670176968 4.4704613537 4.48278751 4.529028063 4.5292254926 
4.5783854691 4.6241858135 4.6245449041 4.6541100335 4.6542370571 4.6580795215 4.6584594909 4.7530718668 4.7800375423 
4.8549627756 4.8598460572 4.8697884405 4.911535472 4.9459642169 4.989333374 4.9900793556 5.0123967175 5.0247712614 
5.0398736558 5.0444818466 5.103090824 5.1035787198 5.1197094793 5.213161778 5.2581716663 5.2966675441 5.3250953199 
5.3437049248 5.3496330607 5.3586277661 5.3690677387 5.374246845 5.3789746789 5.3893635317 5.4353632589 5.4638666673 
5.4863690645 5.5001685355 5.5114843821 5.5330257343 5.5063140873 5.4715745146 5.4453653436 5.4489276472 5.454276654 
5.5021694446 5.5053180536 5.5612632608 5.6594274556 5.6597580919 5.7420865275 5.8112110308 5.9008647599 6.2902426963 