# vtk DataFile Version 4.2
vtk output
ASCII
DATASET POLYDATA
POINTS 16782 float
-91.0719 -166.228 -123.137 -90.9907 -166.216 -123.055 -90.9515 -166.212 -123.01 
-90.8878 -166.198 -122.922 -90.6653 -166.182 -122.63 -90.6107 -166.17 -122.554 
-90.38 -166.158 -122.235 -90.3294 -166.149 -122.157 -90.1685 -166.149 -121.78 
-90.1619 -166.148 -121.769 -90.1064 -166.148 -121.676 -90.0103 -166.148 -121.52 
-89.9238 -166.148 -121.4 -89.8868 -166.152 -121.35 -89.8107 -166.148 -121.242 
-89.8057 -166.147 -121.234 -89.3536 -166.147 -120.629 -89.3022 -166.142 -120.558 
-89.1797 -166.147 -120.379 -89.0368 -166.147 -120.13 -88.8325 -166.147 -119.676 
-88.8315 -166.147 -119.672 -88.8135 -166.147 -119.638 -88.6844 -166.147 -119.432 
-88.5889 -166.145 -119.311 -88.5653 -166.145 -119.28 -88.5501 -166.145 -119.265 
-88.5143 -166.145 -119.21 -88.2309 -166.139 -118.917 -88.14 -166.143 -118.794 
-87.9955 -166.136 -118.633 -87.9073 -166.098 -118.444 -87.8839 -166.093 -118.401 
-87.8093 -166.05 -118.181 -87.7037 -165.975 -117.896 -87.681 -165.964 -117.842 
-87.4081 -165.793 -117.098 -87.4044 -165.791 -117.089 -87.2865 -165.756 -116.901 
-87.016 -165.617 -116.342 -86.9306 -165.57 -116.14 -86.7999 -165.514 -115.924 
-86.798 -165.513 -115.921 -86.7057 -165.484 -115.769 -86.6456 -165.483 -115.691 
-86.6227 -165.48 -115.659 -86.6106 -165.481 -115.64 -86.3655 -165.481 -115.251 
-86.3628 -165.481 -115.246 -86.1038 -165.481 -114.858 -86.0948 -165.482 -114.845 
-86.0451 -165.482 -114.77 -85.8538 -165.483 -114.405 -85.6616 -165.483 -114.138 
-85.5541 -165.484 -113.97 -85.2487 -165.482 -113.653 -85.23 -165.484 -113.628 
-85.0603 -165.481 -113.414 -84.9569 -165.481 -113.277 -84.9348 -165.482 -113.244 
-84.6573 -165.482 -112.856 -84.6544 -165.482 -112.853 -84.3745 -165.482 -112.458 
-84.3725 -165.482 -112.455 -84.0979 -165.482 -112.068 -84.089 -165.483 -112.05 
-83.8611 -165.484 -111.61 -83.634 -165.484 -111.281 -83.5713 -165.487 -111.196 
-83.5367 -165.485 -111.151 -83.5361 -165.485 -111.15 -83.4461 -165.481 -111.008 
-83.2882 -165.481 -110.789 -83.288 -165.481 -110.789 -83.0028 -165.481 -110.391 
-83.0023 -165.481 -110.39 -82.7211 -165.481 -109.998 -82.7187 -165.482 -109.996 
-82.4414 -165.482 -109.597 -82.4379 -165.482 -109.592 -82.1645 -165.482 -109.205 
-82.1569 -165.483 -109.195 -81.8652 -165.483 -108.809 -81.8631 -165.483 -108.806 
-81.6517 -165.483 -108.505 -81.578 -165.48 -108.372 -81.5714 -165.479 -108.362 
-81.2809 -165.473 -108.002 -81.2094 -165.464 -107.919 -80.9678 -165.458 -107.635 
-80.9405 -165.454 -107.603 -80.7163 -165.41 -107.223 -80.7123 -165.409 -107.217 
-80.6086 -165.392 -107.099 -80.2293 -165.294 -106.693 -80.2291 -165.294 -106.692 
-80.2046 -165.287 -106.661 -80.1049 -165.25 -106.544 -79.7693 -165.158 -106.163 
-79.5174 -165.076 -105.893 -79.4558 -165.056 -105.841 -79.4063 -165.036 -105.802 
-79.3967 -165.034 -105.793 -79.2871 -165.003 -105.664 -79.2641 -164.999 -105.636 
-78.8374 -164.886 -105.129 -78.6814 -164.829 -104.939 -78.54 -164.797 -104.782 
-78.54 -164.797 -104.782 -78.5372 -164.797 -104.779 -77.9776 -164.623 -104.285 
-77.8583 -164.596 -104.171 -77.7316 -164.552 -104.02 -77.6906 -164.533 -103.959 
-77.6749 -164.523 -103.934 -77.6489 -164.506 -103.896 -77.447 -164.417 -103.629 
-77.4163 -164.399 -103.586 -77.2506 -164.338 -103.38 -76.7928 -164.222 -102.84 
-76.7629 -164.213 -102.806 -76.6909 -164.199 -102.725 -76.4322 -164.146 -102.407 
-76.2245 -164.132 -102.154 -76.2237 -164.132 -102.153 -76.0427 -164.12 -101.915 
-75.7868 -164.172 -101.576 -75.5961 -164.238 -101.322 -75.5236 -164.257 -101.241 
-75.5167 -164.259 -101.234 -75.1281 -164.417 -100.716 -75.1269 -164.418 -100.714 
-74.9435 -164.499 -100.469 -74.805 -164.549 -100.309 -74.8046 -164.549 -100.308 
-74.6866 -164.591 -100.144 -74.6762 -164.594 -100.131 -74.5271 -164.667 -99.9212 
-74.4124 -164.688 -99.7488 -74.2238 -164.723 -99.4469 -74.1389 -164.719 -99.3228 
-73.9133 -164.694 -99.0956 -73.5792 -164.648 -98.6969 -73.4321 -164.644 -98.5319 
-73.4109 -164.645 -98.503 -73.1603 -164.541 -98.195 -73.0361 -164.45 -98.0551 
-72.901 -164.356 -97.9255 -72.6931 -164.206 -97.7023 -72.5884 -164.134 -97.6035 
-72.4069 -163.985 -97.4562 -72.4069 -163.985 -97.4562 -72.4066 -163.985 -97.456 
-71.8937 -163.729 -96.9879 -71.4996 -163.516 -96.6575 -71.4866 -163.508 -96.6443 
-71.0171 -163.198 -96.2277 -71.0168 -163.198 -96.2274 -70.9842 -163.172 -96.1918 
-70.8913 -163.102 -96.0982 -70.5516 -162.88 -95.7917 -70.5455 -162.877 -95.785 
-70.425 -162.789 -95.664 -70.2651 -162.685 -95.5359 -69.9331 -162.456 -95.3091 
-69.6695 -162.297 -95.1433 -69.1898 -161.933 -94.8209 -68.9238 -161.724 -94.6267 
-68.8717 -161.671 -94.5867 -68.5574 -161.375 -94.2371 -68.4031 -161.255 -94.0425 
-68.2174 -161.132 -93.8355 -67.9799 -160.779 -93.3024 -67.511 -160.401 -92.7465 
-67.4098 -160.311 -92.6161 -67.2222 -160.133 -92.3913 -67.1891 -160.106 -92.3509 
-67.173 -160.09 -92.3282 -67.1429 -160.069 -92.2909 -67.1053 -160.038 -92.2425 
-66.9386 -159.937 -92.0595 -66.8829 -159.897 -92.0013 -66.5726 -159.687 -91.6016 
-66.4971 -159.646 -91.5024 -66.1486 -159.429 -91.1301 -65.9287 -159.281 -90.8736 
-65.7113 -159.185 -90.6402 -65.6898 -159.172 -90.6162 -65.2485 -158.967 -90.1254 
-65.139 -158.927 -90.032 -65.0966 -158.908 -89.9965 -64.7407 -158.701 -89.657 
-64.5886 -158.594 -89.5174 -63.9393 -158.345 -89.2736 -63.9042 -158.328 -89.2575 
-63.7381 -158.282 -89.2067 -63.0802 -158.063 -88.9779 -62.9832 -158.007 -88.958 
-62.7335 -157.9 -88.9097 -62.4281 -157.742 -88.7984 -61.9313 -157.523 -88.6003 
-61.8758 -157.505 -88.5458 -61.8681 -157.503 -88.5415 -61.2025 -157.3 -88.2794 
-61.0521 -157.26 -88.2238 -60.8757 -157.201 -88.1342 -60.7987 -157.179 -88.0936 
-60.5561 -157.134 -87.9651 -60.5561 -157.134 -87.9651 -60.5561 -157.134 -87.9651 
-60.2031 -157.052 -87.7412 -60.0831 -157.013 -87.6723 -59.8619 -156.917 -87.5595 
-59.1703 -156.672 -87.1936 -59.0943 -156.639 -87.1527 -59.0165 -156.62 -87.1092 
-58.5756 -156.522 -86.8956 -58.3967 -156.492 -86.7808 -57.8107 -156.4 -86.5621 
-57.8044 -156.399 -86.5591 -57.6305 -156.368 -86.4705 -57.3234 -156.321 -86.3216 
-57.1003 -156.272 -86.2138 -57.0751 -156.265 -86.2011 -56.8576 -156.226 -86.0991 
-56.7362 -156.197 -86.0507 -56.5511 -156.171 -85.9713 -56.3508 -156.138 -85.9089 
-56.1457 -156.081 -85.8271 -55.7275 -155.972 -85.6447 -55.7187 -155.97 -85.6408 
-55.288 -155.907 -85.4523 -55.0919 -155.862 -85.3615 -54.8557 -155.817 -85.2424 
-54.829 -155.81 -85.2283 -54.7877 -155.798 -85.2071 -54.724 -155.782 -85.1778 
-54.6569 -155.769 -85.1432 -54.512 -155.729 -85.0603 -54.4361 -155.704 -85.0179 
-54.3694 -155.672 -84.9863 -54.147 -155.585 -84.8479 -53.5783 -155.387 -84.4412 
-53.542 -155.375 -84.4149 -53.2726 -155.282 -84.2549 -53.0783 -155.232 -84.1553 
-52.7341 -155.185 -84.011 -52.5554 -155.173 -83.9271 -52.2838 -155.157 -83.8026 
-52.1552 -155.151 -83.7508 -52.1414 -155.149 -83.746 -51.7419 -155.08 -83.5005 
-51.4151 -155.048 -83.3044 -50.9705 -154.955 -82.9838 -50.8121 -154.898 -82.8726 
-50.4496 -154.794 -82.6297 -50.4449 -154.792 -82.6253 -50.2545 -154.743 -82.4837 
-49.8042 -154.714 -82.2548 -49.542 -154.695 -82.0743 -49.4072 -154.676 -81.9889 
-49.1414 -154.65 -81.8065 -49.1135 -154.645 -81.7886 -48.9042 -154.627 -81.6631 
-48.84 -154.62 -81.6274 -48.6202 -154.605 -81.4963 -48.5719 -154.602 -81.4685 
-48.5634 -154.602 -81.4639 -48.42 -154.586 -81.3811 -48.1657 -154.568 -81.2501 
-48.0071 -154.547 -81.1754 -47.8149 -154.534 -81.0719 -47.6458 -154.528 -80.9614 
-47.5215 -154.531 -80.8751 -47.1928 -154.493 -80.5916 -47.0343 -154.493 -80.4656 
-47.0342 -154.493 -80.4655 -47.0165 -154.493 -80.4511 -46.6341 -154.495 -80.2066 
-46.3467 -154.481 -80.0153 -46.1515 -154.485 -79.8871 -45.9939 -154.483 -79.7954 
-45.9031 -154.491 -79.7516 -45.6878 -154.491 -79.6476 -45.6579 -154.489 -79.6289 
-45.6029 -154.488 -79.5941 -45.4378 -154.471 -79.4852 -45.3912 -154.462 -79.4504 
-45.2777 -154.42 -79.3343 -45.2097 -154.4 -79.2655 -44.9441 -154.325 -78.9843 
-44.8963 -154.316 -78.9361 -44.7481 -154.288 -78.7831 -44.6106 -154.259 -78.6401 
-44.5041 -154.247 -78.5308 -44.4346 -154.239 -78.4619 -44.2746 -154.209 -78.297 
-44.0094 -154.183 -78.0276 -43.9238 -154.175 -77.9385 -43.597 -154.173 -77.5909 
-43.5966 -154.173 -77.5904 -43.5625 -154.17 -77.5567 -43.4886 -154.163 -77.4854 
-42.7112 -154.162 -76.7391 -42.6729 -154.159 -76.7183 -41.9304 -154.159 -75.9678 
-41.7639 -154.116 -75.679 -41.6971 -154.109 -75.5668 -41.6194 -154.116 -75.493 
-41.583 -154.117 -75.4534 -41.3341 -154.147 -75.187 -41.2082 -154.159 -75.0671 
-41.0877 -154.174 -74.975 -40.7881 -154.174 -74.7926 -40.5127 -154.153 -74.5309 
-40.4453 -154.152 -74.4662 -40.1463 -154.127 -74.1521 -40.0296 -154.11 -74.0564 
-39.6111 -154.079 -73.7947 -39.4829 -154.072 -73.585 -39.4601 -154.07 -73.5613 
-39.1416 -154.026 -73.3723 -39.0032 -154.003 -73.3249 -38.3604 -153.898 -72.9752 
-38.3046 -153.893 -72.9453 -38.0731 -153.871 -72.8682 -37.3813 -153.678 -72.5643 
-37.2671 -153.66 -72.5405 -37.1291 -153.633 -72.4936 -36.9533 -153.608 -72.4343 
-36.564 -153.556 -72.2557 -36.2141 -153.533 -72.1038 -36.1933 -153.53 -72.0929 
-35.7575 -153.502 -71.8405 -35.4448 -153.45 -71.6817 -35.0486 -153.398 -71.5631 
-34.9732 -153.387 -71.5504 -34.8021 -153.376 -71.5 -34.3758 -153.31 -71.3458 
-33.5394 -153.258 -71.1029 -33.3127 -153.259 -70.9957 -33.3096 -153.259 -70.9948 
-33.1199 -153.264 -70.9414 -33.1186 -153.265 -70.941 -32.7968 -153.292 -70.8412 
-32.3681 -153.307 -70.5869 -32.0043 -153.313 -70.2824 -31.9833 -153.315 -70.2649 
-31.6632 -153.322 -70.0073 -31.6631 -153.322 -70.0073 -31.6576 -153.323 -70.0067 
-31.1104 -153.37 -69.8875 -31.0376 -153.377 -69.8644 -30.8895 -153.382 -69.8221 
-30.4524 -153.418 -69.6725 -30.1525 -153.457 -69.5534 -29.6817 -153.479 -69.34 
-29.5637 -153.487 -69.286 -29.157 -153.488 -69.0688 -29.1555 -153.488 -69.0682 
[...]
POINT_DATA 16782
FIELD FieldData 3
MaximumInscribedSphereRadius 1 16782 double
2.9156017189 2.9341510708 2.9416159799 2.9491912426 2.9755275982 2.9795444175 2.9954250975 3.0010836851 3.0073668176 
3.0072433778 3.0050538306 3.0019109536 3.0057926199 3.0055701976 3.0002290298 2.9993861466 2.9981230908 2.9985378549 
3.0035313844 3.0025324679 3.0070881102 3.007262473 3.00645421 3.0016170392 3.0075524388 3.0092047183 3.010206347 
3.0069549781 3.0059273067 3.0031365411 2.9987760952 2.9698248171 2.9635024183 2.9167204816 2.8642608328 2.8538169934 
2.8022313845 2.8024848859 2.8124200635 2.8869646148 2.9309437992 2.9678583512 2.9684374564 2.9968136126 3.003071577 
3.0039600371 3.0042611994 3.0033842622 3.003388632 3.0032505844 3.0032136195 3.0037221174 3.0071662873 3.0021433547 
3.0089921185 3.0105445718 3.0105955256 3.0051728458 3.0094668465 3.0108236849 3.0097452347 3.0097211742 3.0091765183 
3.0091443475 3.0045936753 3.0046574392 3.0083567139 3.0065786009 3.008991186 3.0085024258 3.0084533065 3.0115743429 
3.0117504694 3.0117509363 3.0112951093 3.0112966303 3.0111079082 3.011106541 3.0095689679 3.0095331385 3.0077449415 
3.0077173166 3.0090481713 3.0090764035 3.0057414578 3.0141981284 3.0148797958 3.0186347347 3.0211533735 3.0315090232 
3.0348743259 3.0743634592 3.0751370431 3.0828072794 3.0976662324 3.0976909236 3.1007526355 3.1059598125 3.1568562614 
3.2071679903 3.2178541629 3.2237540457 3.2231034236 3.2083587449 3.2038230824 3.1540763111 3.1571571829 3.1577889397 
3.1577899893 3.1578545381 3.214532252 3.2399948706 3.2639650372 3.2702048292 3.2712279454 3.2726606922 3.2717901097 
3.2711202288 3.2460798468 3.2173720462 3.2191868437 3.2254325888 3.2468075921 3.279209309 3.2794315582 3.3347716152 
3.3913969221 3.4438466717 3.4690710596 3.4719092448 3.6276204708 3.628145333 3.7136022275 3.7723789775 3.7726336568 
3.8360487928 3.8418063063 3.9197053486 3.9342842531 3.9468768636 3.9414208651 3.8906838952 3.8363500891 3.8294872755 
3.8285523973 3.7600391014 3.7070715284 3.6505128683 3.5658350432 3.5274652808 3.4581741728 3.4581714131 3.4580591841 
3.3109177277 3.2345813216 3.2317480099 3.169169792 3.1691407499 3.1655395239 3.1549357754 3.1473043956 3.1471586335 
3.1395351663 3.1230205665 3.0882045849 3.0747839765 3.0981545093 3.1286081787 3.1323047831 3.1162625936 3.0788159173 
3.0412476938 3.0243987915 3.0368770788 3.0477228886 3.0518505661 3.052310682 3.0525434006 3.0491409769 3.0439511502 
3.0175561806 3.0056895512 2.98184407 2.9826764061 2.9829958017 2.9811577032 2.9754854842 2.9745928749 2.9900282196 
2.9880257518 2.98529136 3.0004495089 3.0185062209 3.0145327258 3.0181843858 3.0261432109 3.1250710996 3.1303398556 
3.128965931 3.1261328065 3.1711201943 3.1786089676 3.1789875965 3.242863443 3.2747418062 3.3110950779 3.3265293051 
3.3663923717 3.3663928281 3.3664027449 3.3374352039 3.3288685378 3.30656194 3.3200227167 3.3290811775 3.3327378354 
3.349922345 3.3718515484 3.4331826998 3.4339051464 3.4543220197 3.5090780746 3.5547134847 3.5611990836 3.602955081 
3.6236537877 3.6489826761 3.6669383345 3.6928439555 3.7410395409 3.7424861956 3.813269963 3.8522477254 3.8991227794 
3.9048887599 3.9125148801 3.9235576182 3.9333384924 3.9532388855 3.9636774936 3.9630425446 3.9443363865 3.9510701898 
3.9537350459 3.9793011131 3.9949802869 4.003770911 4.0102192584 4.0069842745 4.0000578812 3.999271965 3.9488740796 
3.9268883249 3.9185639321 3.9113698214 3.9103708935 3.9101016232 3.8969422977 3.8800332282 3.8808524024 3.8809979491 
3.8841431256 3.8843927076 3.8871291775 3.8879222952 3.8918767131 3.8931184735 3.893410874 3.9038651212 3.9307710699 
3.9476549053 3.9615014766 3.9497046469 3.9402011026 3.9166384748 3.9138482847 3.9138469947 3.9135257871 3.9265651767 
3.9518245045 3.9721869342 3.988676766 3.9948928966 4.0028176253 4.0026328333 3.9994456094 3.9809189157 3.9727233883 
3.9372172146 3.9182249322 3.8429956397 3.8321417037 3.8001317586 3.7780112367 3.7614687471 3.7507680707 3.7280062344 
3.7037564539 3.6962382934 3.6991391869 3.6991481467 3.6998858353 3.7034506812 3.8428545359 3.8509658854 4.1431738739 
4.2468247403 4.2836373154 4.294781794 4.2994049866 4.3366520044 4.3524149623 4.3682065122 4.3792726436 4.4072592654 
4.4149901698 4.4537370168 4.4660606431 4.5092611078 4.554315199 4.5586117308 4.5799391127 4.5826739124 4.6217177489 
4.6254084112 4.6294138108 4.5166030363 4.4965904989 4.4742695761 4.450484782 4.3996855402 4.3734122097 4.371893975 
4.3433516795 4.2890323616 4.2331738012 4.2219957347 4.1797504635 4.0815634968 3.9819034874 3.9532804153 3.9529318713 
3.9314964197 3.9313595066 3.8972681453 3.8656208239 3.8542277981 3.8535531877 3.8418783962 3.8418625856 3.8413843134 
3.7884500504 3.7825412415 3.7653785809 3.7179191898 3.6970838033 3.6830764487 3.678486055 3.6714891668 3.671480204 
3.6712090794 3.676517334 3.6764890267 3.6699190101 3.6716805015 3.670027744 3.6681274597 3.6643048346 3.6217054106 
3.6057439967 3.6008030446 3.5460106921 3.5175107542 3.4860704665 3.4846647909 3.4896212718 3.4898686922 3.4928728604 
3.49478954 3.4971374739 3.4909063759 3.3397737649 3.3397624199 3.3369375102 3.2806458626 3.251238272 3.228366889 
3.2150573437 3.1967704837 3.1951984207 3.1785268474 3.1799983196 3.1848363378 3.1941516604 3.1957633482 3.2098446505 
3.2259874693 3.246867528 3.2827475922 3.2839571092 3.2841547009 3.2824718779 3.3184641382 3.3229221421 3.3342816862 
3.341719292 3.3522866065 3.3581517836 3.3640349426 3.3677826289 3.3672946368 3.3653989268 3.3533287272 3.3462817617 
3.3458874184 3.346282619 3.350881955 3.3664970854 3.3699835989 3.3714521841 3.3742130165 3.3648725636 3.3617975017 
3.3109869146 3.3149663686 3.3309199011 3.3420573846 3.35452364 3.3769867682 3.4268865036 3.4414496398 3.4414848958 
3.4502636336 3.4504282189 3.4914099632 3.4983278528 3.5036699836 3.5052622076 3.5053673059 3.5315367824 3.5466412118 
3.5576310359 3.5603755451 3.5605398146 3.6014429277 3.620861097 3.6658136017 3.6889913668 3.7053348428 3.773468977 
3.7793167601 3.7813443304 3.7816288332 3.7846042257 3.7982578052 3.8311853505 3.8311864103 3.8314503043 3.8420041171 
3.843658106 3.8719123291 3.9183711524 3.9286734698 3.9427624254 3.9640420096 4.0212384961 4.0258296963 4.036241054 
4.0426108318 4.0647333369 4.0784472928 4.0827395931 4.0946952441 4.0988996196 4.1307425688 4.1358155535 4.1376024351 
4.1556359177 4.1556567067 4.1608331787 4.1714903917 4.1962156993 4.198647131 4.2122962679 4.2103126937 4.190738578 
4.1820115036 4.1775268718 4.1643300025 4.146809017 4.123321223 4.1137062246 4.1202109748 4.1368083763 4.2708403389 
4.705871561 4.888826242 5.3311313703 5.526951946 5.6518796659 5.6530106107 5.7225637144 5.7269614283 5.8335885932 
5.9545715356 6.1333858498 6.4599813438 7.1460397347 7.2469620357 7.2426478828 7.1571973167 7.0366214464 6.9747884631 
6.94942406 6.8059894568 6.7498320549 6.665112927 6.5893763281 6.57283307 6.4155837066 6.3578583703 6.2042278523 
6.1408374478 6.1243153947 6.1227982029 6.1058361193 5.9488183533 5.9092744914 5.9063259129 5.9060859174 5.9042866469 
5.8682174773 5.7790703785 5.7291249249 5.6261590399 5.5925607809 5.561076564 5.5605792287 5.5195546109 5.4767076501 
5.4157034809 5.3936106 5.3660668025 5.3648742497 5.3616127267 5.3612784418 5.2690955697 5.2647942402 5.2647271443 
5.2622473779 5.2613157178 5.2569109462 5.2648548266 5.2714944457 5.2880993204 5.2466264399 5.2416234771 5.2410564701 
5.26940322 5.2911825209 5.2912943606 5.2888766795 5.2925744152 5.3149086246 5.3384035905 5.3414973587 5.4055451243 
5.4461502103 5.4906000663 5.5511775871 5.6001901178 5.6124433918 5.6500501194 5.6579541646 5.667545665 5.6864044996 
5.7243890285 5.726063737 5.7636050044 5.7723276473 5.8341673029 5.8818707195 5.8819359207 5.8981710017 5.9009795762 
5.9226473393 5.9324687368 5.9556032002 5.9644388476 6.0078335212 6.0722523263 6.1207340483 6.130846442 6.1563037455 
6.1563454251 6.175132221 6.157136219 6.1566248689 6.1483570414 6.1571517221 6.1598696499 6.1689398888 6.1753287531 
6.1766860833 6.2110636067 6.2158850684 6.2158616646 6.2149099114 6.2368966413 6.2411774164 6.262666211 6.2694305098 
6.2970859778 6.3079683892 6.3153672163 6.3159168504 6.3633048289 6.3633575813 6.3677008623 6.3710199832 6.4281341324 
6.4305691255 6.4687110036 6.4851509529 6.4879066958 6.5115180802 6.5202861463 6.5387361037 6.5394819555 6.5627319643 
6.5627909509 6.5651897395 6.5817078811 6.6233886477 6.6234125293 6.6253787742 6.6254118807 6.6295170843 6.6567423449 
6.6980486428 6.7243014602 6.7253002653 6.7288149882 6.7367987033 6.7379320777 6.7649935322 6.7650820615 6.7871258557 
6.7997933059 6.8018461069 6.8434703485 6.8588099729 6.8821140437 6.8932218945 6.9029120158 6.9345254625 6.9404224408 
6.9404543531 6.9484005161 6.9630991507 6.9727666808 6.9844727004 7.0115621588 7.0117462069 7.017313661 7.0331256207 
7.0636531736 7.0674084912 7.1172659721 7.1213369577 7.1506977795 7.1732324303 7.1834541493 7.1928259828 7.193909796 
7.1989699409 7.2116090298 7.2219630382 7.2347796323 7.2615008219 7.2801710383 7.2897028743 7.2899579524 7.2955838982 
7.3316569827 7.3374125968 7.373039281 7.4263733674 7.4264492286 7.4453386821 7.4908784403 7.4980118701 7.5555533296 
7.5628456644 7.5912991123 7.5950463712 7.6471264996 7.6577927168 7.7043797004 7.7044119697 7.7084133538 7.7325380757 
7.732605858 7.7494836691 7.7616271974 7.7696149099 7.7719139348 7.7744288851 7.8433954059 7.857414915 7.9240997091 
7.9528672099 8.0662563203 8.0662957852 8.0761225456 8.1570734291 8.1961011843 8.2522409154 8.3717521893 8.4207281988 
8.4250258354 8.4775457201 8.7391914539 8.7394991762 8.7776567433 8.8057054029 8.8980579148 8.9226025031 8.9228811971 
8.9922760163 9.0020453936 9.0068247063 9.027801978 9.1196751981 9.131821063 9.1803445783 9.1804086201 9.1963550345 
9.2782863945 9.4323855137 9.5393623975 9.5893061984 9.6748625636 9.9201139684 9.9443825447 9.9630514399 10.043136388 
10.137139302 10.18332855 10.421484427 10.511848941 10.652372976 10.684337853 10.706684335 10.797688021 10.832427058 
10.838709723 10.935101312 11.140748836 11.158059084 11.181262335 11.249416203 11.249438734 11.255049056 11.464748453 
11.548205756 11.590772714 11.648742496 11.659934756 11.700996666 11.707938714 11.711926348 11.722750692 11.736284279 
11.739781507 11.739920343 11.748562789 11.749575074 11.75163467 11.753532127 11.760158234 11.762297214 11.768712867 
11.775371576 11.768251209 11.76957523 11.721846538 11.67481779 11.672348955 11.651154461 11.64818777 11.641319984 
11.629592967 11.564738716 11.557612128 11.553510714 11.528595524 11.520518497 11.50435243 11.498493273 11.487014126 
11.482703742 11.471496551 11.456871634 11.436080361 11.41009921 11.419140331 11.418061585 11.402527011 11.338972609 
11.315928123 11.305509397 11.292207469 11.297763675 11.296160477 11.252517495 11.261026311 11.274384407 11.286170526 
11.293645158 11.299255524 11.301200263 11.301519752 11.302820378 11.315950794 11.318059662 11.317991944 11.317968702 
11.320722487 11.338482119 11.338634384 11.338942337 11.34646309 11.350144939 11.349769775 11.342608611 11.343131432 
11.348826879 11.389316639 11.406427347 11.407566893 11.398553412 11.405294263 11.420214056 11.378591625 11.354616785 
11.32227013 11.321213746 11.320429598 11.2296114 11.212220213 11.122752975 11.056483722 11.040254218 11.039659959 
11.024373205 11.016360311 11.008615892 10.942895071 10.911269699 10.78391559 10.765288266 10.743336138 10.71404868 
10.702246631 10.616182693 10.582047645 10.51124101 10.438340788 10.367170049 10.218198022 10.199158268 10.085254399 
10.029134326 9.9740931531 9.966117247 9.8341628901 9.6858662907 9.6826755117 9.5420881089 9.4718345589 9.4352113194 
9.391882345 9.2312682766 9.1783042023 9.088803611 9.0749373049 8.9853137283 8.911808466 8.8732010997 8.8505892853 
8.7234996131 8.7234479726 8.7191962384 8.6673565005 8.6364847037 8.6263221409 8.5729721376 8.5664817219 8.4709257099 
8.4599844843 8.4309157938 8.4302924797 8.425491214 8.4283381922 8.4285994792 8.465451041 8.5136194422 8.5201294204 
8.5317701946 8.5491497834 8.569402808 8.5707704491 8.5994239519 8.600064594 8.6447025293 8.6756455236 8.6841376351 
8.7050043452 8.7595344129 8.7611718371 8.7715149194 8.7733339139 8.8023096275 8.8023222444 8.8054638466 8.8470957985 
8.8474834343 8.847622405 8.8525742255 8.9031955308 8.9234700069 8.9457134652 8.9550656999 8.9586516676 8.9744836105 
8.9922999089 9.0179099788 9.0257742655 9.0467582625 9.047717284 9.0574240955 9.0601600366 9.0618843382 9.103927764 
9.1393740169 9.1559898119 9.1812644982 9.1826988416 9.1789673789 9.1804514792 9.2023358639 9.2052831841 9.2074397436 
9.2390059546 9.2483248709 9.2740338451 9.2832525395 9.2851036875 9.2886417093 9.2738765977 9.2737380124 9.2802944761 
9.2888581088 9.2875362306 9.2801802302 9.2790746529 9.2620183503 9.261842775 9.253361605 9.2353510257 9.1931030484 
9.1923272369 9.1866450603 9.1235399246 9.0976807633 9.0804350785 9.0584894652 9.0220094073 9.0161373016 8.9603723577 
8.7904117925 8.7346065963 8.6662426833 8.6001349761 8.4811188224 8.4791939742 8.4613865504 8.433222643 8.423544756 
8.3790018308 8.3437797813 8.272703027 8.231188471 8.1352950474 8.1354135078 8.1388575766 8.1395748345 8.1362625498 
8.1267463026 8.1242966887 8.1171790309 8.1421024922 8.1541979392 8.1542750041 8.1701364528 8.190772202 8.2029235589 
8.2036052997 8.3373149087 8.3383025817 8.3560405534 8.3657566513 8.3671307758 8.3668111133 8.4039174198 8.4999217046 
8.5106771129 8.5167805132 8.5803580783 8.6198717551 8.6200191286 8.6321528865 8.6321578728 8.6327761705 8.6490917845 
8.7887658754 8.8162339188 8.8242871561 8.9475932142 8.9691037174 8.9774081155 8.9864386468 8.9906552887 9.0010080679 
9.1761909005 9.1856737818 9.1928244622 9.2959572293 9.3065556557 9.3069345323 9.3398209894 9.3538066169 9.3965820401 
9.4291413997 9.4377863638 9.5607795887 9.6017986013 9.6272510012 9.6508243502 9.6527605607 9.6745027505 9.6760189753 
9.6816395922 9.7119947914 9.7285153963 9.7763386474 9.8111356242 9.809460002 9.8078511794 9.809270958 9.8200630056 
9.8510324912 9.8580539395 9.8597151801 9.8678488495 9.8679624281 9.8991724137 9.9194047191 9.9352580046 9.9372902998 
9.9477741323 9.9485222424 9.9488903879 9.9446853173 9.9498959607 9.9511374377 9.9532685241 9.9625519882 9.9629257972 
9.9697429167 9.9685541847 9.9735603397 9.9791294756 9.9800329226 9.9841294652 9.9846473945 9.985314188 9.988233854 
9.9884292027 9.997936293 10.006218581 10.012647359 10.039372229 10.086870118 10.097511292 10.098585365 10.100437804 
10.10343693 10.109027217 10.116309987 10.116535564 10.115154711 10.113592285 10.073455694 10.043207545 10.026533542 
10.015718949 10.011297159 10.011298509 10.013351633 10.013364689 10.013759628 10.014090298 10.006633908 10.006173844 
9.9916986421 9.9847699822 9.9847707593 9.9848185507 9.9823108932 9.9834266963 9.9831063626 9.9800976683 9.980066059 
9.9832742355 10.006459912 10.010581885 10.020735206 10.024612984 10.029688351 10.033036275 10.034143376 10.035482378 
10.041010211 10.051178838 10.062347645 10.075552257 10.083771603 10.088775708 10.116387532 10.117234596 10.12655359 
10.135250042 10.140600487 10.143915157 10.159757586 10.164514081 10.17634932 10.189676319 10.195538867 10.301389907 
10.311647533 10.334349153 10.348894516 10.358502264 10.370589571 10.387364617 10.395137212 10.397919951 10.401866368 
10.394434574 10.3487514 10.29672158 10.275354269 10.275863787 10.32689736 10.409090826 10.461357874 10.469876486 
10.487596471 10.486853066 10.470965696 10.465175756 2.4708764532 2.4698754213 2.4720240641 2.4725486791 2.4757139052 
2.4784462152 2.4830994944 2.5155238662 2.5272977308 2.5273039783 2.5288596054 2.6072466695 2.6366551034 2.6629540965 
2.6695994559 2.6733552376 2.673491019 2.6735551342 2.6799156792 2.6917389781 2.7278110575 2.7417255747 2.7490380359 
2.7744756301 2.7745180525 2.7850812221 2.8000366786 2.8047383137 2.8061532856 2.8076992282 2.8073809203 2.8136232255 
2.8140352311 2.8140232645 2.8139831033 2.8065267023 2.8065267477 2.8065380521 2.807836963 2.8079185461 2.8129359088 
2.8126945403 2.8114621614 2.8085662991 2.8085148666 2.8084749472 2.8091915978 2.8106794277 2.811380987 2.8103330038 
2.8137674125 2.8281462735 2.8397687 2.8860686512 2.8861953748 2.8966289513 2.8966983994 2.9139909949 2.9142038211 
2.9317265115 2.9803038535 2.9804113269 3.0071722124 3.0240657432 3.0246584634 3.04258825 3.0432804899 3.071431581 
3.0986981942 3.1182672724 3.1312153502 3.1399171299 3.1528730823 3.176179453 3.1762495872 3.193712995 3.1967356666 
3.2160127897 3.2287271055 3.2305865328 3.2318250658 3.2250712812 3.2249740321 3.2138642827 3.2000173331 3.1955826408 
3.1930393123 3.2050001148 3.2107566932 3.224068135 3.228584639 3.2273274261 3.2267945637 3.2146766822 3.2146813172 
3.2138747942 3.2131766357 3.2059490959 3.1955503396 3.2013632932 3.2138204536 3.2161508394 3.2428979406 3.2450074822 
3.2566379012 3.2600788915 3.2636884192 3.2650029012 3.269983013 3.272979384 3.2846853645 3.2931685509 3.2941879746 
3.3012205224 3.3017364517 3.3032380882 3.3032983843 3.3082627645 3.3394834908 3.3422412076 3.3502895797 3.3643732407 
3.3578883424 3.3586599564 3.3662618007 3.3816037495 3.3838275225 3.3862231888 3.3875777482 3.3879019205 3.3875728696 
3.3791010866 3.3742392304 3.3755535911 3.3797924176 3.3852953496 3.3873722104 3.3873525094 3.3873253866 3.3829761085 
3.3794802091 3.3539170684 3.2900255304 3.2845567511 3.286972239 3.3323089162 3.385607633 3.3862315095 3.3947608414 
3.413197256 3.4188042515 3.4327492001 3.4692110493 3.4910573327 3.5087683946 3.554879429 3.5554172734 3.6221099819 
3.7067042557 3.7067511276 3.7184222478 3.7193689003 3.7322660296 3.7322663379 3.7322917202 3.7465803861 3.7636395461 
3.7763168139 3.7796651797 3.7715616631 3.7590092368 3.6850744148 3.5867171843 3.5823586805 3.5060851019 3.4923375108 
3.4409953614 3.3348841685 3.3212173598 3.2372566579 3.1700855112 3.154683042 3.1473092212 3.147166677 3.1395351663 
3.1230205665 3.0882045849 3.0747839765 3.0981545093 3.1286081787 3.1323047831 3.1162625936 3.0788159173 3.0412476938 
3.0243987915 3.0368770788 3.0477228886 3.0518505661 3.052310682 3.0525434006 3.0491409769 3.0439511502 3.0175561806 
3.0056895512 2.98184407 2.9826764061 2.9829958017 2.9811577032 2.9754854842 2.9745928749 2.9900282196 2.9880257518 
2.98529136 3.0004495089 3.0185062209 3.0145327258 3.0181843858 3.0261432109 3.1250710996 3.1303398556 3.128965931 
3.1261328065 3.1711201943 3.1786089676 3.1789875965 3.242863443 3.2747418062 3.3110950779 3.3265293051 3.3663923717 
3.3663928281 3.3664027449 3.3374352039 3.3288685378 3.30656194 3.3200227167 3.3290811775 3.3327378354 3.349922345 
3.3718515484 3.4331826998 3.4339051464 3.4543220197 3.5090780746 3.5547134847 3.5611990836 3.602955081 3.6236537877 
3.6489826761 3.6669383345 3.6928439555 3.7410395409 3.7424861956 3.813269963 3.8522477254 3.8991227794 3.9048887599 
3.9125148801 3.9235576182 3.9333384924 3.9532388855 3.9636774936 3.9630425446 3.9443363865 3.9510701898 3.9537350459 
3.9793011131 3.9949802869 4.003770911 4.0102192584 4.0069842745 4.0000578812 3.999271965 3.9488740796 3.9268883249 
3.9185639321 3.9113698214 3.9103708935 3.9101016232 3.8969422977 3.8800332282 3.8808524024 3.8809979491 3.8841431256 
3.8843927076 3.8871291775 3.8879222952 3.8918767131 3.8931184735 3.893410874 3.9038651212 3.9307710699 3.9476549053 
3.9615014766 3.9497046469 3.9402011026 3.9166384748 3.9138482847 3.9138469947 3.9135257871 3.9265651767 3.9518245045 
3.9721869342 3.988676766 3.9948928966 4.0028176253 4.0026328333 3.9994456094 3.9809189157 3.9727233883 3.9372172146 
3.9182249322 3.8429956397 3.8321417037 3.8001317586 3.7780112367 3.7614687471 3.7507680707 3.7280062344 3.7037564539 
3.6962382934 3.6991391869 3.6991481467 3.6998858353 3.7034506812 3.8428545359 3.8509658854 4.1431738739 4.2468247403 
4.2836373154 4.294781794 4.2994049866 4.3366520044 4.3524149623 4.3682065122 4.3792726436 4.4072592654 4.4149901698 