# vtk DataFile Version 4.2
vtk output
ASCII
DATASET POLYDATA
POINTS 36829 float
-106.064 -178.301 -78.673 -106.064 -178.302 -78.6746 -105.991 -178.577 -79.0613 
-105.991 -178.578 -79.0629 -105.977 -178.638 -79.1618 -105.933 -178.783 -79.3635 
-105.913 -178.879 -79.5408 -105.942 -179.116 -79.9909 -105.95 -179.185 -80.15 
-105.95 -179.233 -80.2833 -105.949 -179.246 -80.3141 -105.949 -179.25 -80.3207 
-105.988 -179.624 -81.1684 -105.968 -179.729 -81.3827 -105.931 -179.934 -81.7043 
-105.914 -179.993 -81.8051 -105.905 -180.041 -81.9034 -105.9 -180.064 -81.9575 
-105.924 -180.146 -82.115 -105.876 -180.422 -82.4354 -105.876 -180.457 -82.5081 
-105.856 -180.681 -82.9385 -105.852 -180.731 -83.0455 -105.706 -181.118 -83.723 
-105.632 -181.275 -84.0422 -105.58 -181.458 -84.4104 -105.516 -181.628 -84.8102 
-105.5 -181.659 -84.8922 -105.499 -181.659 -84.8931 -105.37 -181.868 -85.3292 
-105.245 -182.033 -85.6928 -105.191 -182.077 -85.7798 -105.029 -182.297 -86.1658 
-104.991 -182.338 -86.241 -104.785 -182.492 -86.5981 -104.477 -182.675 -87.0126 
-104.358 -182.758 -87.1571 -104.173 -182.898 -87.4032 -104.089 -182.953 -87.5039 
-104.028 -182.99 -87.5717 -103.951 -183.03 -87.6669 -103.735 -183.244 -87.947 
-103.715 -183.263 -87.9705 -103.671 -183.298 -88.0266 -103.607 -183.346 -88.1022 
-103.38 -183.581 -88.4018 -103.24 -183.724 -88.5318 -103.151 -183.813 -88.6154 
-102.734 -184.276 -89.0184 -102.465 -184.597 -89.3005 -102.318 -184.747 -89.4426 
-101.971 -185.123 -89.844 -101.843 -185.24 -89.9719 -101.779 -185.309 -90.0499 
-101.649 -185.457 -90.2244 -101.326 -185.75 -90.6543 -101.309 -185.763 -90.6759 
-101.025 -186.007 -91.0918 -100.972 -186.041 -91.1825 -100.859 -186.102 -91.318 
-100.832 -186.116 -91.3455 -100.763 -186.16 -91.4197 -100.701 -186.205 -91.4862 
-100.529 -186.311 -91.6493 -100.366 -186.401 -91.8184 -100.362 -186.403 -91.8215 
-100.016 -186.61 -92.0972 -99.9381 -186.658 -92.1557 -99.465 -186.941 -92.4618 
-99.3205 -187.018 -92.5684 -99.0497 -187.211 -92.7728 -98.9386 -187.285 -92.8661 
-98.734 -187.418 -93.04 -98.6801 -187.45 -93.0897 -98.368 -187.653 -93.362 
-98.1303 -187.785 -93.5848 -97.9735 -187.878 -93.7131 -97.6424 -188.045 -94.0027 
-97.6146 -188.063 -94.0361 -97.4911 -188.108 -94.1387 -97.2269 -188.219 -94.4253 
-97.2169 -188.223 -94.4348 -97.0986 -188.268 -94.548 -97.097 -188.269 -94.5495 
-96.9675 -188.311 -94.6734 -96.6694 -188.448 -94.9313 -96.615 -188.476 -94.9702 
-96.273 -188.639 -95.2029 -95.9366 -188.799 -95.3935 -95.7444 -188.864 -95.4834 
-95.4302 -188.987 -95.6697 -95.2381 -189.063 -95.7619 -95.1825 -189.08 -95.7898 
-94.6001 -189.33 -95.937 -94.2558 -189.487 -96.0084 -94.1736 -189.517 -96.0201 
-94.1309 -189.527 -96.0249 -93.7891 -189.688 -96.0711 -93.3434 -189.906 -96.1167 
-93.0718 -190.056 -96.1246 -92.9209 -190.149 -96.1395 -92.8066 -190.217 -96.142 
-92.5668 -190.347 -96.1428 -92.4921 -190.389 -96.1484 -92.07 -190.605 -96.1487 
-92.0692 -190.606 -96.1488 -92.0544 -190.615 -96.1499 -91.6502 -190.871 -96.15 
-91.6441 -190.875 -96.1503 -91.2358 -191.127 -96.1519 -91.2136 -191.139 -96.1507 
-90.7581 -191.316 -96.1508 -90.2435 -191.467 -96.1481 -90.2174 -191.472 -96.1474 
-90.0096 -191.525 -96.135 -89.91 -191.551 -96.1333 -89.7054 -191.596 -96.1328 
-89.3718 -191.654 -96.1161 -89.1446 -191.703 -96.1023 -89.0558 -191.728 -96.0912 
-88.7764 -191.828 -96.0544 -88.7759 -191.828 -96.0544 -88.6369 -191.859 -96.0443 
-88.6134 -191.867 -96.0409 -88.4058 -191.952 -96.01 -88.2738 -191.997 -95.9891 
-88.1486 -192.038 -95.9731 -87.6739 -192.228 -95.8781 -87.2846 -192.406 -95.7807 
-87.212 -192.432 -95.7675 -86.7381 -192.511 -95.7014 -86.6426 -192.526 -95.6931 
-86.4804 -192.542 -95.6738 -86.0533 -192.561 -95.6128 -86.0175 -192.563 -95.6099 
-86.0125 -192.563 -95.6093 -85.7559 -192.598 -95.5698 -85.4142 -192.616 -95.5136 
-85.3444 -192.605 -95.4974 -84.9938 -192.565 -95.4264 -84.9569 -192.563 -95.4218 
-84.6937 -192.56 -95.3935 -84.5304 -192.563 -95.3737 -84.2209 -192.545 -95.3438 
-83.738 -192.488 -95.281 -83.1838 -192.48 -95.1467 -83.0378 -192.476 -95.1184 
-82.9511 -192.474 -95.0984 -82.7605 -192.467 -95.0447 -82.2865 -192.466 -94.9372 
-82.0605 -192.456 -94.889 -82.0101 -192.453 -94.8763 -81.6583 -192.464 -94.7902 
-81.3641 -192.492 -94.7243 -80.8377 -192.563 -94.6486 -80.8316 -192.564 -94.6479 
-80.8045 -192.567 -94.644 -80.5689 -192.597 -94.6037 -80.2381 -192.642 -94.5603 
-80.151 -192.656 -94.5519 -79.9066 -192.687 -94.5192 -79.7316 -192.711 -94.4935 
-79.2007 -192.798 -94.4427 -78.9476 -192.826 -94.4248 -78.9171 -192.831 -94.4225 
-78.44 -192.927 -94.3639 -78.4391 -192.927 -94.3639 -78.1495 -192.942 -94.3061 
-77.8645 -193.043 -94.2114 -76.899 -193.032 -94.093 -76.872 -193.032 -94.0913 
-76.6138 -193.015 -94.0723 -76.0909 -192.999 -94.0519 -76.0658 -192.996 -94.0519 
-75.8815 -192.985 -94.0508 -75.7711 -192.98 -94.0502 -75.381 -192.999 -94.0501 
-75.3803 -192.999 -94.0501 -75.3724 -192.999 -94.0498 -75.2188 -192.994 -94.0509 
-74.6677 -193.022 -94.0304 -74.6671 -193.023 -94.0304 -74.5989 -193.026 -94.0314 
-74.5974 -193.026 -94.0314 -74.5221 -193.03 -94.0317 -74.358 -193.034 -94.0374 
-74.3465 -193.035 -94.0378 -74.2857 -193.036 -94.039 -74.1148 -193.038 -94.0354 
-73.538 -193.01 -94.0433 -73.3762 -192.991 -94.0465 -73.2816 -192.967 -94.0489 
-73.0224 -192.894 -94.0421 -72.7099 -192.84 -94.0421 -72.2743 -192.812 -94.0304 
-72.2738 -192.812 -94.0304 -72.2318 -192.805 -94.0297 -71.9183 -192.793 -94.0298 
-71.5875 -192.783 -94.0241 -71.5079 -192.77 -94.0262 -70.9983 -192.686 -93.9989 
-70.7551 -192.641 -93.9899 -70.2766 -192.544 -93.9565 -69.9038 -192.508 -93.942 
-69.5538 -192.471 -93.9149 -69.3517 -192.432 -93.8954 -69.3515 -192.432 -93.8954 
-69.3157 -192.429 -93.8912 -69.3088 -192.428 -93.8906 -69.1714 -192.415 -93.8787 
-69.1695 -192.415 -93.8785 -69.0893 -192.412 -93.8706 -69.0884 -192.412 -93.8705 
-68.8703 -192.405 -93.8513 -68.8437 -192.404 -93.8505 -68.7636 -192.4 -93.8508 
-68.6559 -192.388 -93.8506 -68.655 -192.388 -93.8507 -68.5772 -192.38 -93.854 
-68.2429 -192.344 -93.8562 -68.1731 -192.337 -93.8587 -68.0527 -192.331 -93.859 
-67.9261 -192.318 -93.8607 -67.7227 -192.291 -93.8531 -67.6529 -192.286 -93.8512 
-67.4299 -192.262 -93.8509 -67.3754 -192.254 -93.8465 -67.031 -192.215 -93.8336 
-67.0303 -192.215 -93.8336 -66.9881 -192.213 -93.8336 -66.6829 -192.208 -93.8208 
-66.2117 -192.163 -93.7892 -66.0461 -192.148 -93.7859 -66.0316 -192.147 -93.7851 
-65.6764 -192.079 -93.7748 -65.6289 -192.072 -93.775 -65.3318 -192.019 -93.7973 
-65.1187 -191.958 -93.8184 -64.975 -191.92 -93.8424 -64.9282 -191.905 -93.8504 
-64.8417 -191.885 -93.8555 -64.4152 -191.806 -93.8946 -63.7492 -191.638 -93.932 
-63.6657 -191.611 -93.9344 -63.2716 -191.5 -93.9424 -63.1495 -191.477 -93.9387 
-63.1482 -191.477 -93.9386 -62.9973 -191.439 -93.9347 -62.6861 -191.348 -93.9277 
-62.6397 -191.337 -93.9235 -62.3549 -191.255 -93.8986 -62.1888 -191.205 -93.8711 
-62.1147 -191.178 -93.8592 -62.0336 -191.157 -93.8408 -61.6466 -191.045 -93.7773 
-61.3204 -190.888 -93.7499 -61.3198 -190.888 -93.7498 -61.1945 -190.829 -93.7442 
-61.1255 -190.798 -93.741 -60.8021 -190.675 -93.7087 -60.8001 -190.674 -93.7085 
-60.5485 -190.58 -93.6934 -60.5485 -190.58 -93.6934 -60.546 -190.579 -93.6933 
-60.4961 -190.558 -93.6914 -60.3991 -190.509 -93.6913 -60.3331 -190.482 -93.6904 
-59.9792 -190.344 -93.7188 -59.2235 -190.062 -93.8464 -59.1764 -190.036 -93.86 
-59.048 -189.967 -93.9008 -58.6857 -189.828 -94.0385 -58.6856 -189.828 -94.0386 
-58.6824 -189.826 -94.0406 -58.3528 -189.674 -94.2501 -57.9273 -189.464 -94.5198 
-57.6289 -189.229 -94.8208 -57.6137 -189.213 -94.8386 -57.2527 -188.857 -95.2769 
-56.4422 -188.379 -96.1931 -55.9931 -187.974 -96.6736 -55.9611 -187.959 -96.7088 
-55.5912 -187.742 -97.0872 -55.5599 -187.723 -97.1208 -55.1528 -187.446 -97.51 
-55.1509 -187.445 -97.5116 -54.9164 -187.283 -97.7106 -54.8404 -187.23 -97.7793 
-54.6328 -187.083 -97.9558 -54.4698 -186.972 -98.1451 -54.4479 -186.958 -98.1695 
-54.2688 -186.855 -98.3497 -53.828 -186.646 -98.8603 -53.688 -186.57 -99.0184 
-53.5381 -186.486 -99.2139 -53.4272 -186.396 -99.3858 -53.3041 -186.293 -99.564 
-52.9625 -186.091 -99.9481 -52.8341 -186.008 -100.09 -52.6803 -185.916 -100.264 
-52.497 -185.793 -100.454 -52.2285 -185.598 -100.726 -51.9937 -185.449 -100.968 
-51.7889 -185.298 -101.187 -51.6472 -185.212 -101.355 -51.6305 -185.203 -101.372 
-51.4739 -185.137 -101.538 -51.3423 -185.068 -101.731 -51.3062 -185.047 -101.786 
-51.2659 -185.024 -101.841 -50.9676 -184.845 -102.25 -50.6515 -184.658 -102.67 
-50.5667 -184.61 -102.776 -50.5633 -184.608 -102.781 -50.445 -184.554 -102.932 
-50.2579 -184.446 -103.161 -50.2574 -184.446 -103.162 -50.1975 -184.415 -103.239 
-49.5894 -184.143 -103.934 -49.4457 -184.1 -104.091 -49.3728 -184.079 -104.165 
-49.175 -183.987 -104.372 -49.1734 -183.986 -104.374 -48.7644 -183.787 -104.761 
-48.7639 -183.787 -104.762 -48.6283 -183.726 -104.876 -48.4636 -183.647 -105.016 
-48.3175 -183.587 -105.124 -48.3008 -183.581 -105.138 -48.0113 -183.472 -105.368 
-47.6488 -183.366 -105.646 -47.1624 -183.22 -106.003 -46.9776 -183.164 -106.131 
-46.8074 -183.1 -106.242 -46.8057 -183.1 -106.243 -46.7222 -183.077 -106.299 
-46.5734 -183.037 -106.391 -46.333 -182.969 -106.551 -46.0287 -182.901 -106.759 
-45.9551 -182.885 -106.814 -45.5782 -182.8 -107.069 -45.3757 -182.756 -107.199 
-45.2585 -182.728 -107.277 -44.9793 -182.716 -107.455 -44.8809 -182.72 -107.515 
-44.7251 -182.716 -107.603 -44.6213 -182.714 -107.667 -44.6198 -182.714 -107.668 
-44.2324 -182.751 -107.899 -44.2308 -182.751 -107.9 -44.026 -182.75 -108.013 
-43.9829 -182.752 -108.037 -43.7282 -182.776 -108.179 -43.4025 -182.777 -108.348 
-43.2177 -182.765 -108.44 -43.2168 -182.765 -108.44 -43.1448 -182.753 -108.473 
-42.9663 -182.717 -108.553 -42.4546 -182.633 -108.766 -42.2106 -182.599 -108.877 
[...]
POINT_DATA 36829
FIELD FieldData 3
MaximumInscribedSphereRadius 1 36829 double
3.758223988 3.7585349845 3.8355697488 3.8358944228 3.8558618719 3.8915160418 3.9088722141 3.8834366058 3.8780050683 
3.8689458417 3.8674767444 3.867305541 3.888159158 3.9142414221 3.9638077674 3.9806337905 3.9966339699 4.0024990906 
3.996998707 3.9796395548 3.971511938 3.9272864899 3.9218555116 3.8577531204 3.8615527775 3.8956909162 3.9570850971 
3.9688143416 3.968869842 4.0032364913 4.060268663 4.0673876539 4.0317488042 4.027122006 4.0076741166 3.9502168959 
3.9286607732 3.9034663202 3.8951469055 3.8892830568 3.8809202951 3.8436326002 3.8407361121 3.8326483154 3.820068948 
3.7593016048 3.7102086096 3.6698174556 3.5056999466 3.4515450419 3.4305586646 3.4106036807 3.4173690308 3.4183298936 
3.4225139275 3.4607142165 3.4631029368 3.5321349479 3.5450945828 3.5648322257 3.5677133739 3.5745555555 3.5803928093 
3.5909013775 3.6087352998 3.6089964382 3.6324037652 3.6350051465 3.6394284217 3.6472877351 3.6584022958 3.6693900576 
3.6918620586 3.6980437838 3.7422771387 3.7863530485 3.8147879525 3.8819109002 3.8912745686 3.897818915 3.9316103003 
3.9320511081 3.9342589676 3.9343272711 3.9399509226 3.9396022735 3.9349298412 3.9222050976 3.9105580344 3.8858188958 
3.8587321932 3.8432055922 3.8370567594 3.7151714934 3.6559396684 3.6421786151 3.6356979964 3.5873939043 3.5447819189 
3.5301619997 3.5245064298 3.5219606667 3.5152590496 3.5135727268 3.5079528526 3.5079510429 3.5079180508 3.5095549167 
3.5095761732 3.5134368949 3.5134105579 3.5072724445 3.5166790481 3.5168951921 3.5174600051 3.5201939317 3.5251612394 
3.5417509797 3.5569631048 3.5641437681 3.5977675634 3.5978396755 3.6157955796 3.6188325575 3.6474145606 3.6675701926 
3.6862026888 3.7801286668 3.8799036426 3.894892124 3.9564835496 3.9683293312 3.9885251836 4.0428407001 4.0473569842 
4.04793423 4.0870721958 4.1421578234 4.1446679884 4.1577585236 4.1572980815 4.1529744086 4.144873697 4.1318261598 
4.10209733 4.0796643271 4.0824115481 4.0830347929 4.0803730147 4.0852301112 4.1015872924 4.1049336138 4.1237986767 
4.1176333244 4.1182539082 4.118294316 4.1174189352 4.110663839 4.1124753869 4.1130094683 4.1186691045 4.1227107268 
4.141613481 4.1525716713 4.1536402583 4.1914829281 4.1913651444 4.1680074821 4.1898407728 4.1903211097 4.1919344872 
4.1989036974 4.2059667593 4.2070450145 4.206733956 4.2063542384 4.2060857392 4.206091017 4.2061551842 4.2031534502 
4.1876062695 4.1876084348 4.1878769358 4.1878953363 4.1887969584 4.1893912615 4.1894844215 4.1897397733 4.1885898671 
4.1946675946 4.2032063046 4.202886481 4.1993972653 4.1943102485 4.1917545224 4.1917516761 4.1915173304 4.1875633077 
4.1871272881 4.1847493321 4.1586216747 4.1498617269 4.1350547241 4.1372147153 4.1577634067 4.176876103 4.1768921251 
4.1808816248 4.1816135999 4.1961311058 4.1963593527 4.2056413898 4.2057663025 4.2368695624 4.2400726807 4.2477385364 
4.2578991516 4.2579745301 4.2641806951 4.2958425155 4.304442578 4.3182888839 4.3327372098 4.3540915457 4.3611666694 
4.3897985208 4.3943914172 4.4236692513 4.4237064742 4.4259956831 4.4453137111 4.4930235967 4.5135577418 4.5158361935 
4.5650231217 4.5714525379 4.6010401281 4.6258239951 4.6404121025 4.6445823004 4.6518399704 4.6909632563 4.7854324184 
4.798780624 4.8707096554 4.8957559245 4.8959940468 4.9255212149 4.9931048944 5.0048292366 5.0765500798 5.1176196593 
5.1350146717 5.1567035999 5.2572476373 5.3377135453 5.3378466747 5.3709959008 5.3903680501 5.494786751 5.4954788096 
5.5812940711 5.5812976211 5.5821815702 5.5988769997 5.6289415324 5.6487642086 5.7325518728 5.9318180936 5.9436045065 
5.9725168553 6.0153522351 6.0153448791 6.0151479012 5.9789147237 5.9168284065 5.8119163987 5.8040407445 5.6400313605 
5.4326580909 5.3999945563 5.3988995839 5.4000851907 5.4001828113 5.4266501862 5.4268717769 5.454349028 5.4653259294 
5.4990097124 5.5037114331 5.5046934286 5.5139311244 5.5247090414 5.5377718772 5.5515617214 5.5618456737 5.574364655 
5.6035092232 5.6206624136 5.6417229101 5.6571795754 5.6936225627 5.7325105664 5.7762310663 5.7947869499 5.7953758779 
5.7894354196 5.7550292377 5.7458434581 5.7369949816 5.6717223532 5.6125817002 5.6015296255 5.6009772089 5.5818004602 
5.5536749657 5.55360957 5.545500511 5.5050006001 5.5053600332 5.5062131184 5.5096559786 5.5097670078 5.5374132705 
5.537464199 5.5501453834 5.5735990433 5.5863918557 5.5869139732 5.6119409336 5.6416576891 5.7074064907 5.735905569 
5.7643098134 5.7645128359 5.7744609378 5.7903291464 5.8245471359 5.8692235216 5.8810479126 5.944990445 5.9883857111 
6.0159280489 6.0670318068 6.0840047183 6.1132944456 6.1329311747 6.1332154471 6.2039992811 6.2043998367 6.254068737 
6.2646407173 6.3242558933 6.4169601234 6.4772188531 6.4775158789 6.5019709987 6.5659954036 6.7592207621 6.8612779894 
6.8697684722 6.8710575441 6.9234798011 6.9241473233 7.0903603361 7.2582333973 7.258498149 7.2692647178 7.324725349 
7.4778407931 7.5828807754 7.6441863742 7.7304185262 8.0248370804 8.0256061806 8.1209746077 8.2703880031 8.3457085746 
8.3310087973 8.3307540238 8.317702543 8.2965584803 8.2716818302 8.2705118705 8.2611737536 8.3031586367 8.310817465 
8.311292994 8.314720698 8.3773491092 8.3920476832 8.3920569917 8.3943748192 8.4008424647 8.3759705313 8.3290348216 
8.2986300961 8.342610597 8.3426272032 8.3434409084 8.3697433604 8.361036444 8.359705882 8.3689738997 8.4230189977 
8.4155527151 8.4207143223 8.4799571233 8.4814536105 8.5433840404 8.5858793001 8.6471310546 8.8294807664 8.9467731259 
9.0437921361 9.1800234766 9.1981517011 9.2180277625 9.285595524 9.312373416 9.3476059461 9.3868938714 9.388152659 
9.409635151 9.4056850673 9.3882070217 9.3668223234 9.3630084594 9.3589134067 9.3514728256 9.3410767921 9.3437993192 
9.3430564193 9.3490807027 9.422563568 9.452743184 9.4558655205 9.4583334164 9.473860382 9.5112400034 9.5324429136 
9.5442593494 9.5451849895 9.532597296 9.5364379783 9.5475230986 9.5538319534 9.5711526446 9.587316526 9.5846464608 
9.5625912159 9.4969248568 9.4968610107 9.4809633531 9.4329520341 9.3166255608 9.2950681795 9.2653593331 9.1957810632 
9.1628747302 9.0813436997 9.0370584386 9.0207014509 9.0242487782 9.0245165183 9.0409825291 9.0411187151 9.0750290445 
9.1089220448 9.1176396459 9.1580953528 9.1886593855 9.2073782887 9.2363671914 9.2365003684 9.2696614398 9.3321866407 
9.4202749453 9.423951853 9.4566517894 9.4630893479 9.4631777435 9.4741387954 9.4879924331 9.51876831 9.5213612343 
9.5223179262 9.5277139747 9.5368633159 9.540331261 9.4403461327 9.4545212254 9.5327837098 9.5762602928 9.5417290914 
9.537850729 9.4433938699 9.4035696462 9.4010161927 9.3942260795 9.3285925421 9.2641087939 9.2009865915 9.1888247907 
8.966147012 8.9616095977 8.8639988321 8.8390799795 8.808196085 8.7797443876 8.7788083046 8.7787783245 8.7838223884 
8.783853425 8.7877019591 8.7928379116 8.8185908635 8.8455682805 8.8509670636 8.8886496246 8.9111158483 8.9209569881 
8.9294954782 8.9301106198 8.9301918755 8.9317991333 8.9334194544 8.937097668 8.9560762412 8.9582665714 8.9593047675 
8.9640051057 8.9669787056 8.9949319708 9.0034720114 9.0091216324 9.0067156733 8.994220201 8.9751993214 8.9543188013 
8.979074882 8.9772570887 8.9627035633 8.9620256583 8.977924594 8.9779997463 8.9873186372 8.9892434518 8.9832360443 
8.9740636033 8.974050091 8.9723745659 8.9600397124 8.9554582145 8.941531337 8.9405307289 8.9372136238 8.9323222487 
8.9348911216 8.9348916182 8.9349531947 8.9534304971 8.9598309305 8.9727410929 8.9729203346 8.9960576856 9.0304044396 
9.0382500139 9.0409351715 9.0591253392 9.0825306317 9.1306198962 9.1307239193 9.1436227866 9.1724147387 9.1738150617 
9.1807260777 9.1884963917 9.1945324278 9.205572993 9.2303056991 9.2403591954 9.2529010913 9.2606692916 9.2730669238 
9.2745177672 9.2262372948 9.2118886437 9.2114837304 9.1517342632 9.0643553562 9.0584114897 8.9801234701 8.9629362747 
8.8686766962 8.8396902243 8.816021731 8.8221553835 8.8325012024 8.8418625883 8.8448766199 8.8398389682 8.7547767314 
8.6914645021 8.6342826736 8.6065971324 8.603964347 8.5147723012 8.5096732352 8.4963383498 8.4305771134 8.4068572943 
8.3742774299 8.3655061477 8.3618536842 8.1984925794 8.1856169316 8.0962338079 8.0604083076 8.0059764261 7.942735123 
7.8559746378 7.7823397742 7.686997855 7.584884938 7.5237681817 7.5237573611 7.5210630212 7.4808305574 7.457554413 
7.5100039495 7.522548413 7.5286665976 7.5288527418 7.5441786142 7.5482629922 7.5665455505 7.5845281567 7.5901628624 
7.5921627464 7.5974300291 7.6018018379 7.6248946101 7.6079907418 7.6151356093 7.6546384384 7.6582540189 7.6686057964 
7.6716280392 7.6719644024 7.6841212535 7.7127265035 7.7187594049 7.7169405055 7.7100777876 7.7188683916 7.7189007591 
7.813831469 7.8416564307 7.8445152223 7.9208465469 7.9657220515 7.9846538389 8.0008224017 8.0072950254 8.0366108081 
8.0370065041 8.0476023629 8.0505652174 8.0798846587 8.1178986156 8.1505934391 8.1518754651 8.1789175331 8.2268186721 
8.2758583275 8.361628485 8.4213285002 8.4212472193 8.4162484403 8.4097123802 8.4096842646 8.4079551501 8.4044725535 
8.3736497414 8.3735123571 8.3622010458 8.3529821925 8.3534276835 8.3534317407 8.3625395376 8.3881240135 8.4299906033 
8.4551798728 8.4792771949 8.4839135107 8.4905103959 8.4918024365 8.5390705516 8.5806878281 8.601567009 8.6639454952 
8.6743126464 8.7069735865 8.7090009738 8.7164249207 8.718558378 8.7483265516 8.7713843989 8.786956361 8.8074562905 
8.8093452119 8.8500672864 8.8710034644 8.8713855892 8.8789643993 8.8977106878 8.8536826699 8.8147189559 8.7848056667 
8.7091954536 8.7074779974 8.6497724042 8.5661378998 8.5610716996 8.4928466931 8.4898546755 8.4789159087 8.4709108988 
8.416300741 8.4162529032 8.4043412903 8.3749258995 8.3726574961 8.3765052248 8.3767024381 8.3799595437 8.3808140699 
8.391866233 8.3918662617 8.3918734248 8.383433238 8.3809130013 8.2614872593 8.1661989442 8.1651583791 8.1577082881 
8.1130638463 8.0571891385 7.8830279777 7.7587684558 7.6083295402 7.5085805449 7.4070401624 7.3966845639 7.3838720771 
7.3618613714 7.2644113025 7.2609322882 7.1822860822 7.1791817597 7.0842820638 7.0784377891 6.9658445649 6.9613130489 
6.9056735281 6.8559553241 6.8550455234 6.8397488847 6.8359436558 6.8349145889 6.8348718691 6.8340852692 6.8333050129 
6.8331951168 6.8321293549 6.8336228848 6.8334525518 6.8351867152 6.8345139688 6.8345206703 6.8346330695 6.8366968587 
6.8366994273 6.8373390018 6.8405881815 6.8437306768 6.8495775356 6.8508067866 6.8528115398 6.8622601402 6.8808039954 
6.883182823 6.8889787333 6.8986111052 6.9286090975 6.9307531469 6.9286568535 6.9284485345 6.9170474983 6.9107544864 
6.8880411139 6.8367341015 6.8236921987 6.7998376459 6.7629413191 6.7607861834 6.7602129545 6.7448580751 6.7379562734 
6.7142276603 6.7018577085 6.679599058 6.678456256 6.6744029831 6.6791053443 6.6795616969 6.6828322454 6.7371823491 
6.743077478 6.7698567832 6.8153288388 6.8247027123 6.8175311489 6.7154389763 6.6391709413 6.5967471016 6.5702991112 
6.5411309188 6.5330037768 6.5065553855 6.4365478531 6.4407701338 6.3989455048 6.3979923772 6.4602228323 6.5079442097 
6.5105201892 6.5132055557 6.5123271998 6.5085422855 6.4684592428 6.4408778316 6.434545678 6.4120219959 6.3563858126 
6.309903487 6.2930386419 6.2094325741 6.1769388117 6.1476078846 6.1198226083 6.1196422694 6.1133819365 6.0684384031 
5.8814413 5.853399959 5.81872443 5.8139129563 5.6948945095 5.632586965 5.6302694253 5.5838209562 5.5119184918 
5.5067234459 5.5029707168 5.4632025973 5.4596033829 5.4475541887 5.4395829379 5.4148704799 5.3859949149 5.3495936747 
5.2776734071 5.1820474099 5.074481652 5.0744593234 5.068899493 5.01186401 5.0067105483 4.9959962751 4.9947231125 
4.9885255395 5.0108159046 5.0213732441 5.0341423902 5.0888812648 5.0944068022 5.1504119349 5.167226566 5.1806770374 
5.184673872 5.1862671639 5.1906846745 5.1915148076 5.1915146642 5.1913324081 5.1913324054 5.1913322394 5.1913607207 
5.19136072 5.1913605291 5.191372081 5.1913720789 5.1913718193 5.1913739716 5.1913327597 5.1913784575 5.1913372341 
5.1913799745 5.191338748 5.1913814887 5.191340258 5.1913788139 5.1913375212 5.1913030726 5.1913029884 5.1855865881 
5.1840707352 5.1723103662 5.1685246675 5.1565091475 5.1168242164 5.0656882851 4.9881479873 4.9849559793 4.9731982983 
4.9663680475 4.9579351867 4.9581731677 4.9569003537 4.9507158608 4.948978462 4.9511851855 4.9517866898 4.9510845272 
4.9513996514 4.9513113837 4.9513215627 4.9511200216 4.9504402438 4.9511621328 4.9453392863 4.9232747114 4.9048629964 
4.9042676678 4.8989120193 4.8888224046 4.8864743321 4.8821595124 4.8844263731 4.8778303396 4.8776214846 4.8767903959 
4.8589678857 4.8419915796 4.838650982 4.807388496 4.7958705457 4.7718433939 4.7774078121 4.7774017162 4.776183175 
4.7912511423 4.8522277105 4.8522631169 4.8610792911 4.8971100337 4.919222254 4.9192688454 4.9308701185 4.942712731 
4.9433612347 4.9470936363 4.9480486003 4.9484463477 4.9485661962 4.9490303257 4.9493195572 4.9457318137 4.9444600065 
4.9263381004 4.8222279074 4.8214235113 4.7845121201 4.7720181055 4.7628355598 4.7391943381 4.7391424479 4.732708066 
4.7236407879 4.7236092613 4.7233208921 4.7234433363 4.7236019328 4.7235985095 4.7189840493 4.7189840751 4.7189862015 
4.7214403022 4.721623458 4.7224677106 4.7229329323 4.7180400372 4.718039988 4.7180338862 4.7224124745 4.7224124133 
4.7224073751 4.7201701505 4.7201703962 4.7196022763 4.722319965 4.7197460301 4.7196236268 4.7180661071 4.7196751293 
4.7196098287 4.7193334249 4.7066050056 4.6547230482 4.646642455 4.5979805516 4.5930513908 4.5628877268 4.4989740785 
4.4956832638 4.4141844594 4.3839665689 4.3836519399 4.3591893898 4.3591085007 4.3571671612 4.3444914418 4.3259837617 
4.2926345972 4.2391585004 4.2387772727 4.2047392743 4.1939652681 4.1971875291 4.2170393945 4.239495517 4.2395956019 
4.2457508218 4.2458629492 4.2737826589 4.273797239 4.2745116647 4.2552587609 4.2378056375 4.237613525 4.2485958382 
4.2486223792 4.2552310884 4.2560644738 4.2899554794 4.2928149224 4.3151334546 4.333037103 4.3260322515 4.2741668031 
4.2723250836 4.1761070172 4.1402612554 4.1402509195 4.1389692655 3.3976901831 3.4320269141 3.4409153458 3.4550272773 
3.5082662895 3.5111901009 3.5133215962 3.5147603838 3.5257758004 3.5456634157 3.5533893911 3.5602266407 3.6050985374 
3.6095608396 3.6166093086 3.6181467704 3.6483972608 3.6456984599 3.6247144696 3.642887471 3.6341414425 3.6487126164 
3.6487355051 3.6544347826 3.6577764384 3.6724288937 3.6830206933 3.6828344484 3.665912318 3.6050477094 3.6011735944 
3.5723269939 3.5713786477 3.5966447468 3.5998829821 3.5920307784 3.5912459597 3.5631962642 3.5590536372 3.5434909508 
3.4932105279 3.4415704359 3.441350934 3.425581105 3.4087983107 3.4019340466 3.3939967535 3.3915957235 3.386519212 
3.3867326966 3.3873693203 3.3925352037 3.3983889589 3.4002045828 3.400357637 3.437781261 3.4416914644 3.4914376756 
3.5312810689 3.5263983713 3.5261211399 3.4458311653 3.387888604 3.3790919953 3.3782233363 3.3638498107 3.3621201421 
3.3546090112 3.3572034472 3.3584580795 3.357969921 3.352595763 3.3528365433 3.3512100759 3.3457558504 3.3421668803 
3.3455304062 3.3599705828 3.3657802352 3.3770919814 3.3803362968 3.4232124916 3.4459032604 3.4550409774 3.5016768324 
3.5885493368 3.6626406935 3.7632365398 3.8203762149 3.8879507343 3.9835468288 4.0326607131 4.1560892125 4.2278060139 
4.2845395483 4.3776677509 4.4182731465 4.4195357124 4.4271154601 4.5612773821 4.7526668765 5.0373221497 5.0525263096 
5.0627335566 5.0932732301 5.0965538418 5.1409777627 5.1438671912 5.1369572967 5.0970084847 5.0899483928 5.0899156686 
5.0858578571 5.0123819371 4.982245532 4.9793105958 4.9132221155 4.8671899094 4.8379982339 4.8322217085 4.8307503129 
4.8308350746 4.8220066006 4.796109742 4.7941379773 4.7817293643 4.7810175573 4.7398090163 4.7284986615 4.735972027 
4.7511959388 4.7626325774 4.7714548175 4.7747374873 4.7755381688 4.7801148253 4.7816374631 4.7753281002 4.7865046792 
4.7866265027 4.777320975 4.7786069267 4.8210809795 4.8316779435 4.9524791849 4.9603108004 5.0963303118 5.1661121224 
5.236769232 5.4554459255 5.6168577475 5.8294884176 6.2066941351 6.6566896179 6.9253625457 7.153314996 7.1580677077 
7.4146252979 7.7402357126 7.7532962863 7.7841619494 7.9901879043 8.0261166023 8.0627484505 8.0763247147 8.1572546286 
8.2369961706 8.5263574881 8.6033264888 8.7103239964 8.7138123395 8.7448611555 8.7884616569 8.7899834446 8.8471126106 
8.8479024739 8.8899567687 8.8687277807 8.8676135956 8.8674134485 8.8175768362 8.7621677235 8.7645620994 8.7662410984 
8.7660626571 8.7630666498 8.763003239 8.7155301783 8.7154892974 8.7121234407 8.6464400172 8.5919671343 8.58043574 
8.5364613852 8.5452002331 8.58090121 8.61696598 8.6456420683 8.8325687589 8.8448823882 8.9987883474 9.0732735964 
9.2333260316 9.2438678144 9.2669627938 9.3537395603 9.3806762812 9.4018386382 9.4219069736 9.4129840776 9.4126512175 
9.394509376 9.3883755422 9.3664880857 9.3634616519 9.3587465261 9.3521303077 9.3410767921 9.3437993192 9.3430564193 
9.3490807027 9.422563568 9.452743184 9.4558655205 9.4583334164 9.473860382 9.5112400034 9.5324429136 9.5442593494 
9.5451849895 9.532597296 9.5364379783 9.5475230986 9.5538319534 9.5711526446 9.587316526 9.5846464608 9.5625912159 
9.4969248568 9.4968610107 9.4809633531 9.4329520341 9.3166255608 9.2950681795 9.2653593331 9.1957810632 9.1628747302 
9.0813436997 9.0370584386 9.0207014509 9.0242487782 9.0245165183 9.0409825291 9.0411187151 9.0750290445 9.1089220448 
9.1176396459 9.1580953528 9.1886593855 9.2073782887 9.2363671914 9.2365003684 9.2696614398 9.3321866407 9.4202749453 
9.423951853 9.4566517894 9.4630893479 9.4631777435 9.4741387954 9.4879924331 9.51876831 9.5213612343 9.5223179262 
9.5277139747 9.5368633159 9.540331261 9.4403461327 9.4545212254 9.5327837098 9.5762602928 9.5417290914 9.537850729 
9.4433938699 9.4035696462 9.4010161927 9.3942260795 9.3285925421 9.2641087939 9.2009865915 9.1888247907 8.966147012 
8.9616095977 8.8639988321 8.8390799795 8.808196085 8.7797443876 8.7788083046 8.7787783245 8.7838223884 8.783853425 
8.7877019591 8.7928379116 8.8185908635 8.8455682805 8.8509670636 8.8886496246 8.9111158483 8.9209569881 8.9294954782 
8.9301106198 8.9301918755 8.9317991333 8.9334194544 8.937097668 8.9560762412 8.9582665714 8.9593047675 8.9640051057 
8.9669787056 8.9949319708 9.0034720114 9.0091216324 9.0067156733 8.994220201 8.9751993214 8.9543188013 8.979074882 
8.9772570887 8.9627035633 8.9620256583 8.977924594 8.9779997463 8.9873186372 8.9892434518 8.9832360443 8.9740636033 
8.974050091 8.9723745659 8.9600397124 8.9554582145 8.941531337 8.9405307289 8.9372136238 8.9323222487 8.9348911216 
8.9348916182 8.9349531947 8.9534304971 8.9598309305 8.9727410929 8.9729203346 8.9960576856 9.0304044396 9.0382500139 
9.0409351715 9.0591253392 9.0825306317 9.1306198962 9.1307239193 9.1436227866 9.1724147387 9.1738150617 9.1807260777 
9.1884963917 9.1945324278 9.205572993 9.2303056991 9.2403591954 9.2529010913 9.2606692916 9.2730669238 9.2745177672 
9.2262372948 9.2118886437 9.2114837304 9.1517342632 9.0643553562 9.0584114897 8.9801234701 8.9629362747 8.8686766962 
8.8396902243 8.816021731 8.8221553835 8.8325012024 8.8418625883 8.8448766199 8.8398389682 8.7547767314 8.6914645021 
8.6342826736 8.6065971324 8.603964347 8.5147723012 8.5096732352 8.4963383498 8.4305771134 8.4068572943 8.3742774299 
8.3655061477 8.3618536842 8.1984925794 8.1856169316 8.0962338079 8.0604083076 8.0059764261 7.942735123 7.8559746378 
7.7823397742 7.686997855 7.584884938 7.5237681817 7.5237573611 7.5210630212 7.4808305574 7.457554413 7.5100039495 
7.522548413 7.5286665976 7.5288527418 7.5441786142 7.5482629922 7.5665455505 7.5845281567 7.5901628624 7.5921627464 
7.5974300291 7.6018018379 7.6248946101 7.6079907418 7.6151356093 7.6546384384 7.6582540189 7.6686057964 7.6716280392 
7.6719644024 7.6841212535 7.7127265035 7.7187594049 7.7169405055 7.7100777876 7.7188683916 7.7189007591 7.813831469 